# vtk DataFile Version 3.0
Reduced x-z stratification field
ASCII
DATASET STRUCTURED_POINTS
DIMENSIONS 241 81 1
ORIGIN 0 -0.6 0
SPACING 5 0.015 1
POINT_DATA 19521
SCALARS x_H2 float 1
LOOKUP_TABLE default
0.19149829
0.014610053
0.0016645822
0.00027474473
5.7785509e-05
1.5018246e-05
4.4494271e-06
1.4839916e-06
5.2780845e-07
1.9971777e-07
7.7329906e-08
3.0762655e-08
1.2208796e-08
4.8761882e-09
1.915988e-09
7.4998415e-10
2.8749308e-10
1.0964584e-10
4.1125237e-11
1.5458218e-11
5.7920851e-12
2.2110707e-12
8.6165098e-13
3.5104857e-13
1.5068583e-13
6.9523558e-14
3.4641851e-14
1.8748334e-14
1.0954671e-14
6.85409e-15
4.5432446e-15
3.1538088e-15
2.2749924e-15
1.6889303e-15
1.2857286e-15
9.95959e-16
7.8456777e-16
6.2428326e-16
5.0252325e-16
4.0654863e-16
3.3160175e-16
2.7083529e-16
2.2251765e-16
1.8253685e-16
1.5040551e-16
1.2343774e-16
1.0166201e-16
8.3215302e-17
6.8323046e-17
5.564112e-17
4.5446868e-17
3.674882e-17
2.9810872e-17
2.3895652e-17
1.922698e-17
1.5258012e-17
1.2165387e-17
9.5481607e-18
7.5383714e-18
5.8472713e-18
4.5691694e-18
3.5007846e-18
2.7068092e-18
2.047807e-18
1.5665384e-18
1.1700166e-18
8.8554306e-19
6.5290274e-19
4.8896583e-19
3.5588773e-19
2.6377375e-19
1.8953925e-19
1.3906011e-19
9.8664703e-20
7.1673639e-20
5.0220812e-20
3.6132042e-20
2.5007201e-20
1.7824015e-20
1.2187535e-20
8.6081427e-21
5.8163498e-21
4.072091e-21
2.7194663e-21
1.8877387e-21
1.2463147e-21
8.5800855e-22
5.6013218e-22
3.8253462e-22
2.4698717e-22
1.6736986e-22
1.0689932e-22
7.1895614e-23
4.5433981e-23
3.0334039e-23
1.8970247e-23
1.2575853e-23
7.7843985e-24
5.1249911e-24
3.1405291e-24
2.0538023e-24
1.2461322e-24
8.0963126e-25
4.8647218e-25
3.1406743e-25
1.8690572e-25
1.1992114e-25
7.069311e-26
4.5082809e-26
2.6327231e-26
1.6689021e-26
9.6545519e-27
6.0832808e-27
3.485494e-27
2.1825249e-27
1.2384022e-27
7.7157581e-28
4.3584706e-28
2.7448939e-28
1.6083225e-28
1.106209e-28
7.7560385e-29
6.7311945e-29
5.9049722e-29
5.3429334e-29
4.813459e-29
4.3272978e-29
3.8781088e-29
3.4780961e-29
3.1106233e-29
2.7864313e-29
2.4886748e-29
2.2260797e-29
1.9848873e-29
1.7721623e-29
1.5770022e-29
1.4052048e-29
1.2478679e-29
1.109765e-29
9.8350268e-30
8.7298957e-30
7.7211063e-30
6.8404599e-30
6.0378165e-30
5.3389243e-30
4.7029188e-30
4.1505587e-30
3.6486813e-30
3.2139513e-30
2.8195676e-30
2.4788495e-30
2.1702324e-30
1.9043145e-30
1.6638235e-30
1.457155e-30
1.270537e-30
1.1105916e-30
9.6638697e-31
8.431236e-31
7.3216256e-31
6.3757069e-31
5.525508e-31
4.8026999e-31
4.1540314e-31
3.604068e-31
3.1112661e-31
2.6946067e-31
2.3218122e-31
2.0074959e-31
1.7266783e-31
1.490573e-31
1.2799214e-31
1.1033035e-31
9.4592454e-32
8.1433403e-32
6.9720508e-32
5.9952841e-32
5.1266045e-32
4.4040007e-32
3.7617235e-32
3.2286746e-32
2.7549981e-32
2.3626774e-32
2.0140265e-32
1.7257589e-32
1.4694774e-32
1.2578721e-32
1.0696152e-32
9.1431569e-33
7.7601563e-33
6.61957e-33
5.6025937e-33
4.7634238e-33
4.0142817e-33
3.3953407e-33
2.8425374e-33
2.3853e-33
1.9777548e-33
1.6411094e-33
1.3432795e-33
1.0990419e-33
8.8627024e-34
7.1447382e-34
5.6816556e-34
4.5260364e-34
3.5658483e-34
2.8243151e-34
2.2198723e-34
1.7605738e-34
1.3892187e-34
1.1088248e-34
8.8140107e-35
7.0935193e-35
5.6838948e-35
4.6112382e-35
3.7216928e-35
3.0404738e-35
2.4689996e-35
2.0288857e-35
1.6558339e-35
1.3671172e-35
1.1201167e-35
9.2811137e-36
7.6249412e-36
6.3323879e-36
5.2096053e-36
4.3302745e-36
3.5621294e-36
2.9588618e-36
2.4298825e-36
2.0139127e-36
1.6488283e-36
1.3620053e-36
1.1105655e-36
9.1345342e-37
7.4115515e-37
6.06609e-37
4.8954117e-37
3.9861008e-37
3.1993254e-37
2.5919588e-37
0.29900219
0.027696849
0.0032012453
0.00052880344
0.00011115773
2.8867225e-05
8.5451673e-06
2.8474725e-06
1.0117843e-06
3.8246386e-07
1.4792828e-07
5.8780514e-08
2.3299859e-08
9.2940608e-09
3.6469057e-09
1.4254786e-09
5.4559371e-10
2.077446e-10
7.778342e-11
2.9182826e-11
1.0912431e-11
4.156633e-12
1.6160217e-12
6.5676408e-13
2.8120231e-13
1.2942784e-13
6.4350582e-14
3.4764175e-14
2.028449e-14
1.267867e-14
8.3980816e-15
5.8268574e-15
4.2017523e-15
3.1185861e-15
2.3736743e-15
1.83848e-15
1.4481308e-15
1.1522014e-15
9.2742647e-16
7.502696e-16
6.1193772e-16
4.9978581e-16
4.1061405e-16
3.368311e-16
2.7753591e-16
2.2777088e-16
1.8758785e-16
1.5354854e-16
1.2606858e-16
1.0266752e-16
8.3856978e-17
6.7807385e-17
5.5005607e-17
4.409101e-17
3.5476549e-17
2.8153184e-17
2.2446825e-17
1.7617661e-17
1.3909314e-17
1.0788999e-17
8.4307251e-18
6.4594105e-18
4.9944194e-18
3.7784726e-18
2.8904683e-18
2.1588335e-18
1.6339425e-18
1.2046906e-18
9.0220563e-19
6.5665917e-19
4.8669688e-19
3.4972455e-19
2.5658399e-19
1.820492e-19
1.3224718e-19
9.2663924e-20
6.6668311e-20
4.6141535e-20
3.2887624e-20
2.2487586e-20
1.5883141e-20
1.0731921e-20
7.5135368e-21
5.0177686e-21
3.483123e-21
2.2996124e-21
1.5831372e-21
1.0335166e-21
7.0582606e-22
4.557234e-22
3.0881913e-22
1.9724314e-22
1.3265675e-22
8.3831596e-23
5.5970242e-23
3.500257e-23
2.3204082e-23
1.4363226e-23
9.4562744e-24
5.7946842e-24
3.7895321e-24
2.2992757e-24
1.4938749e-24
8.9760437e-25
5.7949521e-25
3.4486534e-25
2.2127009e-25
1.3043797e-25
8.3183639e-26
4.8577161e-26
3.0793412e-26
1.7813902e-26
1.1224443e-26
6.4311892e-27
4.027042e-27
2.2850129e-27
1.4236576e-27
8.0419444e-28
5.0646858e-28
2.9675639e-28
2.0410993e-28
1.4310899e-28
1.2419928e-28
1.0895441e-28
9.8584065e-29
8.8814574e-29
7.9844269e-29
7.155615e-29
6.4175398e-29
5.7395048e-29
5.1413285e-29
4.5919292e-29
4.1074074e-29
3.6623763e-29
3.2698713e-29
2.9097758e-29
2.5927876e-29
2.3024812e-29
2.0476637e-29
1.8146939e-29
1.6107834e-29
1.4246494e-29
1.2621594e-29
1.1140622e-29
9.8510847e-30
8.6775827e-30
7.6584189e-30
6.7324032e-30
5.9302851e-30
5.2026121e-30
4.5739613e-30
4.004542e-30
3.5139109e-30
3.0701963e-30
2.6888916e-30
2.3445833e-30
2.0494926e-30
1.7834456e-30
1.5560415e-30
1.3513363e-30
1.1768379e-30
1.0199996e-30
8.8667027e-31
7.6701815e-31
6.6558186e-31
5.7468877e-31
4.9784802e-31
4.2909549e-31
3.7113537e-31
3.19349e-31
2.7581423e-31
2.3696701e-31
2.0440014e-31
1.7537256e-31
1.511032e-31
1.2949063e-31
1.1146677e-31
9.5425506e-32
8.2079213e-32
7.0204041e-32
6.0344697e-32
5.157138e-32
4.4300718e-32
3.7828332e-32
3.2472785e-32
2.7701947e-32
2.375904e-32
2.0243199e-32
1.7339556e-32
1.474715e-32
1.2606192e-32
1.0691799e-32
9.1093867e-33
7.6922037e-33
6.5187524e-33
5.4669823e-33
4.5946877e-33
3.8143747e-33
3.1679309e-33
2.5942385e-33
2.1226236e-33
1.7110035e-33
1.3782269e-33
1.0947582e-33
8.7087765e-34
6.8506978e-34
5.4172595e-34
4.2510211e-34
3.366152e-34
2.6521952e-34
2.113939e-34
1.6782143e-34
1.3490253e-34
1.0797681e-34
8.7510198e-35
7.0561383e-35
5.7593425e-35
4.6727796e-35
3.8365916e-35
3.1285821e-35
2.5809779e-35
2.112965e-35
1.7493641e-35
1.4360362e-35
1.1916333e-35
9.7953467e-36
8.1351478e-36
6.6862786e-36
5.5490307e-36
4.5528254e-36
3.7699226e-36
3.0835459e-36
2.5447051e-36
2.0729025e-36
1.703351e-36
1.3807226e-36
1.1290172e-36
9.1028712e-37
7.4055743e-37
5.9388239e-37
4.8076558e-37
0.42053917
0.050533564
0.0059876049
0.0009906221
0.00020805892
5.3966536e-05
1.5953449e-05
5.3085562e-06
1.8833973e-06
7.1079858e-07
2.7444628e-07
1.0885536e-07
4.3064852e-08
1.7142927e-08
6.7119935e-09
2.6174931e-09
9.9935545e-10
3.7952732e-10
1.4170069e-10
5.3002549e-11
1.9754068e-11
7.4977208e-12
2.9037364e-12
1.1753077e-12
5.0112763e-13
2.2972625e-13
1.1380434e-13
6.1295377e-14
3.56816e-14
2.2264456e-14
1.4729787e-14
1.0211479e-14
7.3592666e-15
5.4599151e-15
4.1545535e-15
3.2171453e-15
2.5336818e-15
2.0156779e-15
1.6223066e-15
1.31232e-15
1.0702995e-15
8.7410237e-16
7.1811914e-16
5.8906323e-16
4.8535387e-16
3.9831693e-16
3.2804108e-16
2.6851172e-16
2.2045482e-16
1.7953195e-16
1.4663735e-16
1.1857131e-16
9.6185009e-17
7.7098976e-17
6.203524e-17
4.9229269e-17
3.925092e-17
3.0806502e-17
2.4321998e-17
1.8865755e-17
1.4742041e-17
1.1294975e-17
8.7332759e-18
6.6070605e-18
5.0542892e-18
3.7749476e-18
2.8571199e-18
2.1065277e-18
1.5776009e-18
1.1482371e-18
8.5104027e-19
6.1152983e-19
4.4866384e-19
3.1833199e-19
2.3124796e-19
1.6203252e-19
1.1657648e-19
8.0683276e-20
5.7507433e-20
3.9321885e-20
2.7773326e-20
1.876588e-20
1.3138201e-20
8.7740905e-21
6.0906031e-21
4.0211117e-21
2.7682802e-21
1.8072114e-21
1.2342103e-21
7.968798e-22
5.4000239e-22
3.4490015e-22
2.3196413e-22
1.4658827e-22
9.7869793e-23
6.1205635e-23
4.0574752e-23
2.5115596e-23
1.653528e-23
1.0132608e-23
6.6263912e-24
4.0205229e-24
2.6121956e-24
1.5695546e-24
1.0133077e-24
6.0303294e-25
3.8691377e-25
2.2808437e-25
1.4545525e-25
8.4942221e-26
5.3845485e-26
3.1149462e-26
1.9627107e-26
1.1245604e-26
7.041702e-27
3.9955828e-27
2.4894135e-27
1.4062177e-27
8.8561302e-28
5.1890944e-28
3.5690746e-28
2.5024096e-28
2.1717538e-28
1.9051812e-28
1.723845e-28
1.5530153e-28
1.3961602e-28
1.2512338e-28
1.1221736e-28
1.0036122e-28
8.9901485e-29
8.0294667e-29
7.18223e-29
6.404047e-29
5.7177114e-29
5.088047e-29
4.5337604e-29
4.0261296e-29
3.580555e-29
3.1731834e-29
2.8166252e-29
2.4911508e-29
2.2070207e-29
1.9480578e-29
1.7225694e-29
1.5173711e-29
1.3391604e-29
1.1772378e-29
1.03698e-29
9.0973987e-30
7.9981488e-30
7.0024721e-30
6.1445663e-30
5.3686994e-30
4.7019645e-30
4.0999219e-30
3.5839435e-30
3.1187512e-30
2.7211321e-30
2.3632041e-30
2.0580982e-30
1.7838721e-30
1.5507561e-30
1.3415547e-30
1.1642079e-30
1.0052948e-30
8.7095579e-31
7.507567e-31
6.4943112e-31
5.5889677e-31
4.8279265e-31
4.1487993e-31
3.5795007e-31
3.0720278e-31
2.6477633e-31
2.2698855e-31
1.9547638e-31
1.6742367e-31
1.4408379e-31
1.2330918e-31
1.0606017e-31
9.0703669e-32
7.7975987e-32
6.6638585e-32
5.7255979e-32
4.8891224e-32
4.1976589e-32
3.580507e-32
3.0706721e-32
2.6149644e-32
2.2384639e-32
1.9013281e-32
1.6224805e-32
1.3722946e-32
1.1649173e-32
9.7860409e-33
8.2381927e-33
6.8494898e-33
5.6962849e-33
4.6696233e-33
3.8234472e-33
3.082988e-33
2.4831782e-33
1.9715664e-33
1.5671757e-33
1.2315824e-33
9.7276057e-34
7.6241215e-34
6.0296733e-34
4.7451821e-34
3.7779623e-34
2.9962247e-34
2.4062894e-34
1.9244195e-34
1.5584781e-34
1.255771e-34
1.0243251e-34
8.3057538e-35
6.8155322e-35
5.5547123e-35
4.5799851e-35
3.7475021e-35
3.1010011e-35
2.5442487e-35
2.11013e-35
1.7336289e-35
1.4390287e-35
1.1820883e-35
9.8047941e-36
8.0398221e-36
6.6532583e-36
5.4385033e-36
4.485336e-36
3.6514193e-36
2.9985971e-36
2.4291264e-36
1.9851077e-36
1.5995731e-36
1.3005956e-36
1.0424345e-36
8.4346487e-37
0.53686771
0.08880315
0.010996061
0.0018257879
0.00038316713
9.9242081e-05
2.928904e-05
9.7288559e-06
3.4451096e-06
1.2975921e-06
4.9993444e-07
1.9784198e-07
7.8078495e-08
3.1001087e-08
1.2104491e-08
4.7067228e-09
1.7914195e-09
6.7808055e-10
2.5226183e-10
9.3994316e-11
3.488417e-11
1.3179983e-11
5.079001e-12
2.0449293e-12
8.6717609e-13
3.9543331e-13
1.9495569e-13
1.0458332e-13
6.0690935e-14
3.7783259e-14
2.4956571e-14
1.7281931e-14
1.2445238e-14
9.2282464e-15
7.0192486e-15
5.4339385e-15
4.2786423e-15
3.4033473e-15
2.7388333e-15
2.2152919e-15
1.8066089e-15
1.4753492e-15
1.2120154e-15
9.9415992e-16
8.191038e-16
6.7219854e-16
5.5358923e-16
4.5312153e-16
3.7201861e-16
3.0295726e-16
2.4744568e-16
2.0008346e-16
1.6230654e-16
1.3009924e-16
1.0467975e-16
8.3070335e-17
6.6232503e-17
5.1983159e-17
4.1041076e-17
3.1834133e-17
2.4875738e-17
1.9059138e-17
1.4736518e-17
1.1148739e-17
8.5285928e-18
6.3698335e-18
4.8210931e-18
3.5545462e-18
2.6620369e-18
1.9375302e-18
1.4360414e-18
1.0318926e-18
7.5707323e-19
5.3715187e-19
3.9020669e-19
2.7341289e-19
1.9671059e-19
1.3614457e-19
9.7037761e-20
6.6351556e-20
4.6864574e-20
3.1665455e-20
2.2169336e-20
1.4805357e-20
1.0277254e-20
6.785204e-21
4.6711824e-21
3.0494796e-21
2.0826004e-21
1.3446511e-21
9.1119738e-22
5.8198283e-22
3.9141512e-22
2.4735232e-22
1.6514501e-22
1.0327809e-22
6.8465637e-23
4.2379933e-23
2.790155e-23
1.7097714e-23
1.118134e-23
6.7842105e-24
4.4078061e-24
2.6484588e-24
1.7098504e-24
1.0175548e-24
6.528764e-25
3.8486844e-25
2.4544047e-25
1.4333109e-25
9.0858607e-26
5.2561449e-26
3.3118684e-26
1.8975776e-26
1.1882133e-26
6.7421269e-27
4.200624e-27
2.3728448e-27
1.4943791e-27
8.7560524e-28
6.0224389e-28
4.2225536e-28
3.6646066e-28
3.2147934e-28
2.9088075e-28
2.6205503e-28
2.3558738e-28
2.1113257e-28
1.8935503e-28
1.6934903e-28
1.5169932e-28
1.3548883e-28
1.211926e-28
1.0806158e-28
9.6480383e-29
8.5855458e-29
7.6502454e-29
6.7936717e-29
6.0418113e-29
5.3544146e-29
4.75276e-29
4.2035563e-29
3.7241167e-29
3.287144e-29
2.9066562e-29
2.5604057e-29
2.2596941e-29
1.9864668e-29
1.7497968e-29
1.5350926e-29
1.3496059e-29
1.1815962e-29
1.0368339e-29
9.0591482e-30
7.9341067e-30
6.9182267e-30
6.0475713e-30
5.2626123e-30
4.5916766e-30
3.9877152e-30
3.4728864e-30
3.0101637e-30
2.6168109e-30
2.2638111e-30
1.9645634e-30
1.6964203e-30
1.4697442e-30
1.2669273e-30
1.0959584e-30
9.4319803e-31
8.1478815e-31
7.0019971e-31
6.0414478e-31
5.1852142e-31
4.4693975e-31
3.8318428e-31
3.3001939e-31
2.8269061e-31
2.4331538e-31
2.0826708e-31
1.7916898e-31
1.5326229e-31
1.3179255e-31
1.126665e-31
9.6840074e-32
8.2728733e-32
7.1065465e-32
6.065355e-32
5.2053657e-32
4.4364346e-32
3.8012609e-32
3.2322045e-32
2.7615692e-32
2.3389391e-32
1.9885392e-32
1.6732571e-32
1.4110824e-32
1.175296e-32
9.7911008e-33
8.0388255e-33
6.5905754e-33
5.3190292e-33
4.2862625e-33
3.4033158e-33
2.7042995e-33
2.1237687e-33
1.675914e-33
1.3121435e-33
1.0365857e-33
8.1488446e-34
6.4812408e-34
5.1354137e-34
4.1208865e-34
3.2932721e-34
2.6653123e-34
2.146388e-34
1.7498805e-34
1.4182117e-34
1.1632316e-34
9.4763873e-35
7.8102923e-35
6.3881103e-35
5.2840087e-35
4.3336551e-35
3.5928487e-35
2.9506688e-35
2.4483202e-35
2.0103841e-35
1.6668364e-35
1.3662025e-35
1.1300781e-35
9.2331678e-36
7.6114292e-36
6.1934506e-36
5.0838733e-36
4.1165408e-36
3.3626384e-36
2.708422e-36
2.2013161e-36
1.7636899e-36
1.4265561e-36
0.63442333
0.14897933
0.019899467
0.0033293185
0.00069848305
0.00018063418
5.3211547e-05
1.7640019e-05
6.233131e-06
2.3423617e-06
9.0025175e-07
3.5534037e-07
1.3984515e-07
5.5362572e-08
2.1548385e-08
8.3509943e-09
3.1670651e-09
1.1942106e-09
4.4243326e-10
1.641169e-10
6.0609807e-11
2.2777279e-11
8.7259727e-12
3.4913269e-12
1.4709144e-12
6.6647658e-13
3.266739e-13
1.743859e-13
1.0081124e-13
6.2583969e-14
4.125601e-14
2.8529678e-14
2.052557e-14
1.5209728e-14
1.1563451e-14
8.9487291e-15
7.0443667e-15
5.60219e-15
4.5076774e-15
3.6455862e-15
2.9727667e-15
2.4275004e-15
1.9941003e-15
1.635588e-15
1.3475336e-15
1.1058188e-15
9.1067314e-16
7.4538365e-16
6.1195853e-16
4.9834722e-16
4.0702889e-16
3.2911829e-16
2.6697664e-16
2.1399763e-16
1.7218468e-16
1.3663936e-16
1.0894304e-16
8.5504646e-17
6.7506382e-17
5.2362254e-17
4.091671e-17
3.1349275e-17
2.4239228e-17
1.833789e-17
1.4028163e-17
1.0477348e-17
7.9299179e-18
5.8466519e-18
4.3786182e-18
3.186922e-18
2.3620544e-18
1.6972952e-18
1.2452621e-18
8.8352727e-19
6.4182639e-19
4.4971961e-19
3.2355684e-19
2.2393561e-19
1.5961129e-19
1.0913749e-19
7.7084579e-20
5.2084507e-20
3.6464941e-20
2.4352397e-20
1.6904406e-20
1.1160554e-20
7.683333e-21
5.0158965e-21
3.425538e-21
2.2117316e-21
1.498771e-21
9.5726681e-22
6.4381403e-22
4.0685422e-22
2.716366e-22
1.6987561e-22
1.126148e-22
6.9708077e-23
4.5893498e-23
2.812295e-23
1.839148e-23
1.115892e-23
7.2501219e-24
4.3562827e-24
2.812425e-24
1.6737117e-24
1.0738752e-24
6.330458e-25
4.0370954e-25
2.3575626e-25
1.4944759e-25
8.645501e-26
5.4474832e-26
3.1212056e-26
1.9544171e-26
1.1089699e-26
6.9093413e-27
3.9029426e-27
2.4580098e-27
1.4402278e-27
9.9059296e-28
6.9454118e-28
6.02768e-28
5.2878108e-28
4.7845139e-28
4.3103778e-28
3.875028e-28
3.4727864e-28
3.1145813e-28
2.7855152e-28
2.4952064e-28
2.2285701e-28
1.9934205e-28
1.7774366e-28
1.5869448e-28
1.4121821e-28
1.2583404e-28
1.117448e-28
9.9377923e-29
8.8071365e-29
7.8175126e-29
6.9141616e-29
6.1255614e-29
5.4068121e-29
4.7809713e-29
4.211445e-29
3.7168229e-29
3.2674078e-29
2.8781234e-29
2.5249691e-29
2.2198729e-29
1.9435233e-29
1.7054117e-29
1.49007e-29
1.3050176e-29
1.1379205e-29
9.9471035e-30
8.6559584e-30
7.5523611e-30
6.5589261e-30
5.7120976e-30
4.9509762e-30
4.303955e-30
3.7233096e-30
3.2310759e-30
2.7900064e-30
2.4171422e-30
2.0835258e-30
1.8022933e-30
1.5510154e-30
1.33979e-30
1.151304e-30
9.9330339e-31
8.5246742e-31
7.3472914e-31
6.2987062e-31
5.4243373e-31
4.6460319e-31
3.998568e-31
3.4223365e-31
2.9439908e-31
2.518187e-31
2.1653718e-31
1.8511386e-31
1.5911799e-31
1.3594467e-31
1.1679762e-31
9.9708854e-32
8.5599857e-32
7.2987293e-32
6.2573917e-32
5.3245439e-32
4.5534546e-32
3.8609089e-32
3.2869481e-32
2.7701305e-32
2.3402776e-32
1.9529921e-32
1.6302915e-32
1.3411523e-32
1.1015061e-32
8.9027123e-33
7.1813715e-33
5.7049106e-33
4.53322e-33
3.558607e-33
2.8060921e-33
2.194931e-33
1.7321572e-33
1.3602553e-33
1.0808014e-33
8.5559833e-34
6.8601902e-34
5.4786232e-34
4.4312758e-34
3.5666453e-34
2.9064061e-34
2.3545387e-34
1.9304677e-34
1.5721082e-34
1.295265e-34
1.0590634e-34
8.7574228e-35
7.1801569e-35
5.9509804e-35
4.8858653e-35
4.0528624e-35
3.3269225e-35
2.7575385e-35
2.2594187e-35
1.8682392e-35
1.5258404e-35
1.2573689e-35
1.0227506e-35
8.3922598e-36
6.7930551e-36
5.5471334e-36
4.4664565e-36
3.6290857e-36
2.9067646e-36
2.3505056e-36
0.70989315
0.23489758
0.035467119
0.0060230418
0.0012645754
0.00032656365
9.601302e-05
3.1761185e-05
1.1196835e-05
4.1973368e-06
1.6088993e-06
6.3326803e-07
2.4847e-07
9.8050946e-08
3.8032403e-08
1.4685651e-08
5.5475684e-09
2.0830659e-09
7.6821527e-10
2.8355579e-10
1.0414897e-10
3.8905926e-11
1.4806801e-11
5.8824033e-12
2.4599013e-12
1.1064327e-12
5.3865453e-13
2.8589987e-13
1.6453308e-13
1.0180406e-13
6.6953109e-14
4.6224654e-14
3.3218845e-14
2.4596241e-14
1.8689282e-14
1.4457381e-14
1.1377321e-14
9.0460017e-15
7.2773969e-15
5.8847896e-15
4.7981936e-15
3.9177655e-15
3.2180744e-15
2.6393571e-15
2.1744223e-15
1.784315e-15
1.4693884e-15
1.2026591e-15
9.8735993e-16
8.0404018e-16
6.5669651e-16
5.3098983e-16
4.3072815e-16
3.4525137e-16
2.7779101e-16
2.2044343e-16
1.757596e-16
1.3794559e-16
1.0890851e-16
8.4476209e-17
6.6010971e-17
5.0575755e-17
3.9105088e-17
2.9584453e-17
2.2631574e-17
1.6903052e-17
1.2793293e-17
9.4323689e-18
7.0639977e-18
5.141441e-18
3.810687e-18
2.7382351e-18
2.008973e-18
1.4253886e-18
1.0354541e-18
7.2552957e-19
5.2199202e-19
3.6127377e-19
2.5749979e-19
1.7607075e-19
1.2436002e-19
8.4027575e-20
5.8828637e-20
3.9287554e-20
2.7271761e-20
1.8005244e-20
1.2395468e-20
8.092111e-21
5.5263966e-21
3.5681713e-21
2.4179569e-21
1.5443519e-21
1.0386607e-21
6.563751e-22
4.3822944e-22
2.7405914e-22
1.8168068e-22
1.1245956e-22
7.4039662e-23
4.5370559e-23
2.9670847e-23
1.8002608e-23
1.1696571e-23
7.0279606e-24
4.5372657e-24
2.7001874e-24
1.7324754e-24
1.0212884e-24
6.513018e-25
3.8034393e-25
2.4110276e-25
1.3947727e-25
8.7883869e-26
5.0354194e-26
3.1530476e-26
1.7890934e-26
1.1146792e-26
6.2965902e-27
3.9654901e-27
2.3235095e-27
1.5981167e-27
1.1204985e-27
9.7244144e-28
8.5307884e-28
7.718823e-28
6.9539025e-28
6.2515558e-28
5.6026221e-28
5.0247323e-28
4.4938522e-28
4.025499e-28
3.5953366e-28
3.2159712e-28
2.8675259e-28
2.5602068e-28
2.2782633e-28
2.0300716e-28
1.8027707e-28
1.6032567e-28
1.4208487e-28
1.2611933e-28
1.1154562e-28
9.8823172e-29
8.7227628e-29
7.7130966e-29
6.7942822e-29
5.9963099e-29
5.2712698e-29
4.6432377e-29
4.073494e-29
3.5812816e-29
3.1354458e-29
2.7512989e-29
2.4038861e-29
2.1053387e-29
1.8357583e-29
1.604714e-29
1.3964101e-29
1.2183627e-29
1.0580877e-29
9.2146419e-30
7.9866793e-30
6.9427884e-30
6.0059849e-30
5.2118104e-30
4.5001846e-30
3.8985896e-30
3.3603211e-30
2.90656e-30
2.5011352e-30
2.1603251e-30
1.8562143e-30
1.601285e-30
1.3740636e-30
1.1841068e-30
1.0149468e-30
8.738953e-31
7.4836004e-31
6.4393577e-31
5.5102067e-31
4.7389906e-31
4.0526883e-31
3.4841402e-31
2.9779508e-31
2.5593088e-31
2.1862818e-31
1.8781848e-31
1.6033398e-31
1.3765349e-31
1.17389e-31
1.0066902e-31
8.5698588e-32
7.3334226e-32
6.2233545e-32
5.3041486e-32
4.4764116e-32
3.7882706e-32
3.1675905e-32
2.6500256e-32
2.1849885e-32
1.7985533e-32
1.4564717e-32
1.1766588e-32
9.3564806e-33
7.4377481e-33
5.8378518e-33
4.6007229e-33
3.5956001e-33
2.8346039e-33
2.2236434e-33
1.765002e-33
1.3959409e-33
1.1183516e-33
8.9250453e-34
7.2145213e-34
5.8038528e-34
4.7273611e-34
3.8282239e-34
3.1376147e-34
2.5543369e-34
2.1038886e-34
1.7197374e-34
1.4216698e-34
1.1653153e-34
9.6558298e-35
7.9256907e-35
6.5728607e-35
5.3942435e-35
4.4699149e-35
3.6614289e-35
3.0265583e-35
2.4710383e-35
2.0355977e-35
1.6552469e-35
1.3578242e-35
1.0987628e-35
8.9699214e-36
7.2205004e-36
5.8653531e-36
4.6968214e-36
3.7971953e-36
0.766174
0.34235887
0.061971798
0.010818996
0.0022779381
0.00058760989
0.0001724285
5.6913334e-05
2.0014993e-05
7.483578e-06
2.8605342e-06
1.1225776e-06
4.3904776e-07
1.726704e-07
6.6732033e-08
2.5668048e-08
9.6557279e-09
3.6094604e-09
1.3246445e-09
4.8635139e-10
1.7758724e-10
6.5911376e-11
2.4904758e-11
9.8172279e-12
4.071603e-12
1.8163491e-12
8.7751486e-13
4.6271603e-13
2.6491509e-13
1.6328924e-13
1.0709974e-13
7.380336e-14
5.2969412e-14
3.9184633e-14
2.9755095e-14
2.3006755e-14
1.8099079e-14
1.4386643e-14
1.1571571e-14
9.3557576e-15
7.6273291e-15
6.227159e-15
5.1146188e-15
4.1945654e-15
3.4554922e-15
2.8354269e-15
2.3348993e-15
1.9110018e-15
1.5688578e-15
1.2775472e-15
1.0434143e-15
8.4366932e-16
6.8435987e-16
5.4854551e-16
4.4135932e-16
3.5024234e-16
2.7924701e-16
2.1916723e-16
1.7303278e-16
1.3421466e-16
1.0487716e-16
8.0353828e-17
6.2129381e-17
4.7003149e-17
3.5956544e-17
2.6855182e-17
2.0325684e-17
1.4985923e-17
1.122311e-17
8.1685966e-18
6.0543264e-18
4.3504407e-18
3.1918068e-18
2.2646221e-18
1.6451039e-18
1.1527034e-18
8.2932797e-19
5.739828e-19
4.0910927e-19
2.7973684e-19
1.9758011e-19
1.3350092e-19
9.3465476e-20
6.241909e-20
4.3328696e-20
2.8606284e-20
1.9693611e-20
1.2856545e-20
8.7802016e-21
5.6690219e-21
3.8415899e-21
2.4536279e-21
1.6501983e-21
1.0428324e-21
6.9624804e-22
4.3541835e-22
2.8864975e-22
1.7867295e-22
1.1763237e-22
7.2083617e-23
4.7140305e-23
2.8602095e-23
1.8583222e-23
1.1165849e-23
7.2086949e-24
4.2899907e-24
2.7525138e-24
1.6225976e-24
1.0347721e-24
6.0428099e-25
3.8305806e-25
2.2159802e-25
1.3962771e-25
8.0001492e-26
5.0094836e-26
2.8424672e-26
1.7709747e-26
1.0003866e-26
6.3002721e-27
3.6915341e-27
2.5390482e-27
1.7802201e-27
1.5449908e-27
1.3553505e-27
1.2263474e-27
1.1048187e-27
9.9323164e-28
8.9013066e-28
7.9831697e-28
7.1397205e-28
6.3956125e-28
5.7121811e-28
5.1094548e-28
4.5558535e-28
4.0675925e-28
3.6196476e-28
3.2253266e-28
2.8641966e-28
2.5472135e-28
2.257408e-28
2.0037513e-28
1.7722077e-28
1.5700764e-28
1.385849e-28
1.2254355e-28
1.0794563e-28
9.5267607e-29
8.3748313e-29
7.3770253e-29
6.4718261e-29
5.6898062e-29
4.981468e-29
4.3711389e-29
3.8191719e-29
3.34484e-29
2.9165301e-29
2.5494445e-29
2.2184884e-29
1.9356019e-29
1.6809521e-29
1.4638781e-29
1.2687728e-29
1.1029114e-29
9.5406445e-30
8.2787709e-30
7.1480589e-30
6.1921526e-30
5.3368728e-30
4.6158493e-30
3.9716413e-30
3.4300869e-30
2.9468643e-30
2.5417783e-30
2.1807435e-30
1.8789144e-30
1.6101598e-30
1.3860656e-30
1.1866573e-30
1.0207925e-30
8.7324584e-31
7.5079309e-31
6.4186015e-31
5.5163491e-31
4.7134051e-31
4.0495193e-31
3.45828e-31
2.9701426e-31
2.5349541e-31
2.1760217e-31
1.8555456e-31
1.5913142e-31
1.3549112e-31
1.1598472e-31
9.8485161e-32
8.4011018e-32
7.0983682e-32
6.0164199e-32
5.0401678e-32
4.226085e-32
3.4930177e-32
2.8825768e-32
2.3398701e-32
1.8941738e-32
1.5083834e-32
1.2000302e-32
9.4205268e-33
7.4213786e-33
5.7956081e-33
4.5644347e-33
3.5767882e-33
2.8360448e-33
2.2408692e-33
1.7937385e-33
1.4304693e-33
1.1556079e-33
9.2917241e-34
7.5649703e-34
6.1237835e-34
5.0173528e-34
4.0833854e-34
3.362351e-34
2.7477003e-34
2.2709116e-34
1.8609951e-34
1.5416916e-34
1.2651894e-34
1.0490278e-34
8.6074878e-35
7.1310269e-35
5.8397478e-35
4.8257595e-35
3.9387517e-35
3.2436954e-35
2.6368632e-35
2.1624921e-35
1.7494641e-35
1.4278646e-35
1.1491226e-35
9.332586e-36
7.471797e-36
6.0395734e-36
0.80776256
0.45748508
0.10517458
0.019278775
0.0040859401
0.0010535821
0.00030860179
0.00010163256
3.5652434e-05
1.3294823e-05
5.0671265e-06
1.982421e-06
7.7276871e-07
3.0285085e-07
1.1659998e-07
4.4669275e-08
1.6730478e-08
6.224981e-09
2.2728704e-09
8.2986471e-10
3.0114625e-10
1.1100636e-10
4.1623566e-11
1.62706e-11
6.6878224e-12
2.9566145e-12
1.4162948e-12
7.4135826e-13
4.2197377e-13
2.5897313e-13
1.6933719e-13
1.1644341e-13
8.3450129e-14
6.1669742e-14
4.6795405e-14
3.6163311e-14
2.8438134e-14
2.259832e-14
1.8172378e-14
1.4689996e-14
1.1974444e-14
9.77517e-15
8.0280323e-15
6.5834112e-15
5.4231096e-15
4.4497492e-15
3.6641056e-15
2.998792e-15
2.4618246e-15
2.0046591e-15
1.6372403e-15
1.3237963e-15
1.0738116e-15
8.6069986e-16
6.9251291e-16
5.4954251e-16
4.381461e-16
3.4387785e-16
2.714911e-16
2.1058433e-16
1.6455315e-16
1.2607565e-16
9.7481276e-17
7.3748088e-17
5.6415896e-17
4.213582e-17
3.1891017e-17
2.3512922e-17
1.7609062e-17
1.2816528e-17
9.4992372e-18
6.8258403e-18
5.0079437e-18
3.5531912e-18
2.5811673e-18
1.8085911e-18
1.3012152e-18
9.005787e-19
6.4189223e-19
4.3890694e-19
3.1000308e-19
2.0946287e-19
1.4664728e-19
9.7935516e-20
6.7982699e-20
4.4883244e-20
3.0899265e-20
2.0171911e-20
1.3776131e-20
8.894692e-21
6.0274523e-21
3.8497408e-21
2.5891602e-21
1.6362035e-21
1.0924128e-21
6.8317114e-22
4.528913e-22
2.8033775e-22
1.8456513e-22
1.1309915e-22
7.3963111e-23
4.4876671e-23
2.9157065e-23
1.7519211e-23
1.1310438e-23
6.7309929e-24
4.3186925e-24
2.5458547e-24
1.6235568e-24
9.4811652e-25
6.0101788e-25
3.4768716e-25
2.1907579e-25
1.2552229e-25
7.8598769e-26
4.4598293e-26
2.7786582e-26
1.569606e-26
9.8851233e-27
5.7920149e-27
3.9837651e-27
2.7931643e-27
2.4240896e-27
2.1265441e-27
1.9241384e-27
1.7334599e-27
1.5583798e-27
1.3966145e-27
1.2525588e-27
1.1202217e-27
1.0034712e-27
8.9624085e-28
8.0167311e-28
7.1481308e-28
6.3820495e-28
5.6792242e-28
5.0605346e-28
4.4939216e-28
3.996575e-28
3.5418703e-28
3.1438827e-28
2.7805905e-28
2.4634464e-28
2.1743933e-28
1.9227042e-28
1.6936623e-28
1.4947437e-28
1.3140054e-28
1.1574491e-28
1.0154226e-28
8.9272291e-29
7.8158381e-29
6.858222e-29
5.9921759e-29
5.2479378e-29
4.575908e-29
3.9999376e-29
3.4806541e-29
3.0367905e-29
2.6372304e-29
2.2966249e-29
1.9904891e-29
1.7302352e-29
1.496678e-29
1.2986721e-29
1.1212472e-29
9.7124773e-30
8.3703897e-30
7.2389381e-30
6.2280417e-30
5.3782001e-30
4.6199211e-30
3.9842337e-30
3.4177102e-30
2.9440798e-30
2.5223963e-30
2.1707871e-30
1.8579657e-30
1.5977766e-30
1.3663828e-30
1.1743622e-30
1.0036028e-30
8.6219314e-31
7.3640536e-31
6.3242902e-31
5.3988213e-31
4.6350163e-31
3.9545141e-31
3.3935361e-31
2.8930499e-31
2.4806903e-31
2.1120891e-31
1.8082407e-31
1.5359211e-31
1.310971e-31
1.10869e-31
9.4092386e-32
7.8958875e-32
6.6347791e-32
5.4975449e-32
4.5492316e-32
3.7027762e-32
3.004899e-32
2.3975128e-32
1.9097988e-32
1.5000119e-32
1.181528e-32
9.2211078e-33
7.2553348e-33
5.6792758e-33
4.4981759e-33
3.5506008e-33
2.8396034e-33
2.2628227e-33
1.8268714e-33
1.4681337e-33
1.1947676e-33
9.6678767e-34
7.9184741e-34
6.4425677e-34
5.3035377e-34
4.3329725e-34
3.5802985e-34
2.9334185e-34
2.4296472e-34
1.9935365e-34
1.6526599e-34
1.3558157e-34
1.1230432e-34
9.1947217e-35
7.5960404e-35
6.1978884e-35
5.1026632e-35
4.1469347e-35
3.4000756e-35
2.7500398e-35
2.2440298e-35
1.8055918e-35
1.4661373e-35
1.1736041e-35
9.4849548e-36
0.83864779
0.56397169
0.17088499
0.033980733
0.0072975592
0.0018834571
0.00055083666
0.00018101185
6.3338617e-05
2.3554899e-05
8.9510916e-06
3.4909683e-06
1.3562043e-06
5.2959245e-07
2.0310701e-07
7.7489599e-08
2.8893519e-08
1.0699075e-08
3.8859411e-09
1.4106904e-09
5.0864197e-10
1.8615727e-10
6.9243369e-11
2.6828048e-11
1.0922088e-11
4.7815803e-12
2.269267e-12
1.1782515e-12
6.6630165e-13
4.0694291e-13
2.6517668e-13
1.8191137e-13
1.3015417e-13
9.6073764e-14
7.2842481e-14
5.6259311e-14
4.4222179e-14
3.5129586e-14
2.8242335e-14
2.2825771e-14
1.8603418e-14
1.5184762e-14
1.2469531e-14
1.0224845e-14
8.4222064e-15
6.9101798e-15
5.6898751e-15
4.6565577e-15
3.8226346e-15
3.1126854e-15
2.5421335e-15
2.0554156e-15
1.66725e-15
1.3363476e-15
1.0752061e-15
8.5322182e-16
6.8026352e-16
5.3390064e-16
4.215124e-16
3.2694871e-16
2.5548118e-16
1.9574164e-16
1.5134662e-16
1.1449906e-16
8.7589566e-17
6.5418732e-17
4.9512961e-17
3.6505392e-17
2.7339247e-17
1.9898515e-17
1.4748198e-17
1.0597571e-17
7.7751651e-18
5.516565e-18
4.0074333e-18
2.8079575e-18
2.0202227e-18
1.3982081e-18
9.9658018e-19
6.8143208e-19
4.813003e-19
3.2520497e-19
2.2767961e-19
1.5205137e-19
1.0554764e-19
6.9684206e-20
4.7973154e-20
3.1318228e-20
2.1388356e-20
1.3809598e-20
9.3580186e-21
5.9769774e-21
4.0198426e-21
2.5403142e-21
1.6960431e-21
1.0606684e-21
7.0314371e-22
4.3524292e-22
2.8654957e-22
1.7559392e-22
1.1483262e-22
6.9674002e-23
4.5268272e-23
2.7199734e-23
1.7560204e-23
1.0450312e-23
6.705056e-24
3.9526079e-24
2.5206795e-24
1.4720136e-24
9.3312004e-25
5.3980732e-25
3.4012967e-25
1.9488167e-25
1.2202979e-25
6.9241802e-26
4.3140508e-26
2.4369172e-26
1.5347308e-26
8.9924864e-27
6.185059e-27
4.3365724e-27
3.7635596e-27
3.3016004e-27
2.9873521e-27
2.6913113e-27
2.4194878e-27
2.1683364e-27
1.9446805e-27
1.7392183e-27
1.5579554e-27
1.3914732e-27
1.2446505e-27
1.1097945e-27
9.9085531e-28
8.81737e-28
7.8568132e-28
6.9771088e-28
6.2049451e-28
5.4989854e-28
4.881083e-28
4.3170474e-28
3.8246595e-28
3.375885e-28
2.9851202e-28
2.6295168e-28
2.3206817e-28
2.0400726e-28
1.7970074e-28
1.5765009e-28
1.3860002e-28
1.213448e-28
1.0647703e-28
9.3030929e-29
8.1475963e-29
7.1042074e-29
6.2099549e-29
5.4037126e-29
4.7145621e-29
4.094196e-29
3.5653584e-29
3.0900381e-29
2.6859499e-29
2.3233119e-29
2.0158669e-29
1.7403778e-29
1.5074663e-29
1.2990745e-29
1.1233834e-29
9.6641398e-30
8.3444796e-30
7.1670365e-30
6.1799163e-30
5.3002492e-30
4.5648018e-30
3.9100856e-30
3.3641654e-30
2.8785503e-30
2.4746525e-30
2.115544e-30
1.817565e-30
1.5526706e-30
1.3333384e-30
1.138324e-30
9.7716179e-31
8.337951e-31
7.1551093e-31
6.1019795e-31
5.2342211e-31
4.4606532e-31
3.823711e-31
3.2548972e-31
2.7864457e-31
2.3670656e-31
2.0210889e-31
1.7103411e-31
1.4530287e-31
1.2211044e-31
1.0280793e-31
8.5390397e-32
7.0858118e-32
5.7842961e-32
4.7074532e-32
3.7648936e-32
3.0041929e-32
2.3617315e-32
1.8605629e-32
1.4513788e-32
1.1409643e-32
8.9215053e-33
7.0581429e-33
5.5654109e-33
4.4467828e-33
3.5407519e-33
2.8567108e-33
2.2944999e-33
1.8664167e-33
1.509698e-33
1.2361093e-33
1.0054224e-33
8.2745234e-34
6.758685e-34