# vtk DataFile Version 3.0
Local 2D buoyant multi-species transport-check field
ASCII
DATASET STRUCTURED_POINTS
DIMENSIONS 121 33 1
ORIGIN -2.2737368e-13 -0.6 0
SPACING 10 0.0375 1
POINT_DATA 3993
SCALARS x_H2 float 1
LOOKUP_TABLE default
0.95100224
0.93618714
0.91792792
0.89577371
0.86932297
0.83826092
0.80239961
0.76171682
0.71638968
0.66681789
0.61363209
0.55768354
0.50001314
0.44180018
0.38429407
0.3287348
0.27627035
0.22788014
0.18431349
0.14605021
0.11328757
0.085953981
0.06374612
0.046182858
0.032667836
0.022552056
0.015189173
0.0099784615
0.0063931827
0.0039946587
0.0024343144
0.0014470085
0.00083918954
0.00047497489
0.00026245536
0.0001416407
7.4689326e-05
3.8500749e-05
1.9410225e-05
9.5754288e-06
4.6245502e-06
2.1876666e-06
1.0141619e-06
4.6095427e-07
2.0551208e-07
8.991746e-08
3.8625067e-08
1.6296605e-08
6.7562288e-09
2.7533411e-09
1.1033811e-09
4.3496487e-10
1.6872903e-10
6.4426223e-11
2.4220209e-11
8.9659802e-12
3.268171e-12
1.1725358e-12
4.1452002e-13
1.4746619e-13
5.9429776e-14
3.6162549e-14
2.8704279e-14
2.3247895e-14
1.8685658e-14
1.4969768e-14
1.1959343e-14
9.5207214e-15
7.5492804e-15
5.9620585e-15
4.6900024e-15
3.6749146e-15
2.8682188e-15
2.2297665e-15
1.7265644e-15
1.3316143e-15
1.022922e-15
7.8265546e-16
5.9642767e-16
4.5268772e-16
3.4220613e-16
2.5764351e-16
1.9319107e-16
1.4427309e-16
1.0730205e-16
7.9478386e-17
5.8627617e-17
4.3068667e-17
3.1507962e-17
2.2954747e-17
1.6653733e-17
1.2031814e-17
8.6561441e-18
6.2013356e-18
4.4239162e-18
3.1425559e-18
2.2228349e-18
1.5655725e-18
1.0979303e-18
7.666654e-19
5.330408e-19
3.6900535e-19
2.5434118e-19
1.7454477e-19
1.1926074e-19
8.1130303e-20
5.4948801e-20
3.7052494e-20
2.4874562e-20
1.6625202e-20
1.1062332e-20
7.3280681e-21
4.832705e-21
3.1728092e-21
2.0736979e-21
1.3492423e-21
8.7392142e-22
5.6349232e-22
3.6168627e-22
2.3109989e-22
1.4698958e-22
0.95100224
0.92599238
0.90061112
0.87039292
0.83423392
0.79240658
0.74563005
0.69492615
0.64142411
0.58624269
0.53044623
0.47504878
0.4207922
0.36824171
0.3181111
0.27105834
0.22763787
0.18827174
0.15322809
0.1226118
0.096368539
0.074304469
0.056120159
0.041448942
0.029886488
0.021007862
0.014380246
0.0095791346
0.0062075602
0.0039134177
0.0024008184
0.0014339857
0.00083440962
0.00047331685
0.00026191152
0.00014147211
7.4640074e-05
3.8487302e-05
1.9406869e-05
9.5747099e-06
4.6244494e-06
2.1876818e-06
1.0141847e-06
4.609687e-07
2.055196e-07
8.992107e-08
3.8626724e-08
1.6297342e-08
6.756549e-09
2.7534774e-09
1.103438e-09
4.3498818e-10
1.6873842e-10
6.4429938e-11
2.4221655e-11
8.9665342e-12
3.2683798e-12
1.1726134e-12
4.1454848e-13
1.4747657e-13
5.9433531e-14
3.6163466e-14
2.8704395e-14
2.3247947e-14
1.8685707e-14
1.4969809e-14
1.1959376e-14
9.5207482e-15
7.5493023e-15
5.9620763e-15
4.6900167e-15
3.6749259e-15
2.8682275e-15
2.229773e-15
1.7265689e-15
1.3316171e-15
1.0229233e-15
7.8265522e-16
5.9642606e-16
4.5268477e-16
3.422019e-16
2.5763802e-16
1.9318438e-16
1.4426524e-16
1.0729311e-16
7.9468462e-17
5.8616839e-17
4.3057192e-17
3.1495974e-17
2.2942452e-17
1.664135e-17
1.2019566e-17
8.6442495e-18
6.1899945e-18
4.4133027e-18
3.1328102e-18
2.2140576e-18
1.557822e-18
1.0912231e-18
7.6097943e-19
5.2832106e-19
3.6517108e-19
2.5129402e-19
1.7217689e-19
1.1746239e-19
7.9796041e-20
5.3982156e-20
3.6368978e-20
2.4403072e-20
1.6308189e-20
1.0854657e-20
7.1955649e-21
4.7504164e-21
3.1231007e-21
2.044511e-21
1.3325969e-21
8.6470807e-22
5.5854639e-22
3.5911343e-22
2.2982049e-22
1.4698958e-22
0.95100224
0.9187557
0.88843092
0.85252463
0.80956633
0.7602975
0.70612915
0.64883717
0.5901969
0.53177107
0.47484351
0.42044651
0.36904552
0.32071535
0.27577654
0.23449186
0.19703679
0.16349586
0.1338606
0.10803281
0.085833858
0.067022787
0.051322818
0.03844659
0.028106917
0.020011439
0.013854323
0.0093178711
0.0060855028
0.0038597918
0.0023786463
0.0014253489
0.00083123586
0.00047221541
0.00026155032
0.00014136028
7.4607506e-05
3.8478472e-05
1.94047e-05
9.5742664e-06
4.6244006e-06
2.1877011e-06
1.0142045e-06
4.6098047e-07
2.0552562e-07
8.992394e-08
3.8628036e-08
1.6297925e-08
6.7568024e-09
2.7535852e-09
1.103483e-09
4.3500661e-10
1.6874584e-10
6.4432877e-11
2.4222799e-11
8.9669723e-12
3.268545e-12
1.1726747e-12
4.1457099e-13
1.4748478e-13
5.94365e-14
3.616419e-14
2.8704487e-14
2.3247988e-14
1.8685746e-14
1.4969841e-14
1.1959402e-14
9.5207695e-15
7.5493197e-15
5.9620905e-15
4.6900281e-15
3.6749349e-15
2.8682346e-15
2.2297783e-15
1.7265727e-15
1.3316196e-15
1.0229246e-15
7.8265546e-16
5.9642528e-16
4.5268305e-16
3.4219927e-16
2.5763452e-16
1.9318003e-16
1.4426009e-16
1.0728722e-16
7.9461904e-17
5.8609699e-17
4.3049579e-17
3.1488012e-17
2.2934281e-17
1.6633116e-17
1.201142e-17
8.6363358e-18
6.182448e-18
4.40624e-18
3.126325e-18
2.2082172e-18
1.5526654e-18
1.0867613e-18
7.5719785e-19
5.2518295e-19
3.6262253e-19
2.4926936e-19
1.7060419e-19
1.1626845e-19
7.8910562e-20
5.334089e-20
3.5915691e-20
2.4090482e-20
1.609806e-20
1.0717022e-20
7.107751e-21
4.6958768e-21
3.0901485e-21
2.0251573e-21
1.3215556e-21
8.5859412e-22
5.5526291e-22
3.5740472e-22
2.2897191e-22
1.4698958e-22
0.95100224
0.91383184
0.88050834
0.8408725
0.79349951
0.73947183
0.6807013
0.61946944
0.55794718
0.49792821
0.44076266
0.38741245
0.33814082
0.29268114
0.25109408
0.2133989
0.17955128
0.14945089
0.12294707
0.099846008
0.079920056
0.062921916
0.048603182
0.036729015
0.027078397
0.019429682
0.013544427
0.009162709
0.0060125482
0.0038275786
0.002365278
0.0014201281
0.00082931441
0.0004715482
0.00026133166
0.00014129274
7.4587945e-05
3.8473235e-05
1.9403453e-05
9.5740345e-06
4.6243902e-06
2.1877226e-06
1.0142212e-06
4.6098992e-07
2.0553036e-07
8.9926181e-08
3.8629058e-08
1.6298379e-08
6.7569992e-09
2.7536689e-09
1.1035179e-09
4.3502093e-10
1.6875161e-10
6.4435158e-11
2.4223687e-11
8.9673125e-12
3.2686732e-12
1.1727223e-12
4.1458847e-13
1.4749115e-13
5.9438805e-14
3.6164753e-14
2.8704558e-14
2.324802e-14
1.8685776e-14
1.4969866e-14
1.1959422e-14
9.520786e-15
7.5493333e-15
5.9621015e-15
4.690037e-15
3.674942e-15
2.8682401e-15
2.2297826e-15
1.7265759e-15
1.3316218e-15
1.0229259e-15
7.8265601e-16
5.9642514e-16
4.5268226e-16
3.4219786e-16
2.5763254e-16
1.931775e-16
1.4425705e-16
1.0728371e-16
7.9457968e-17
5.8605397e-17
4.3044978e-17
3.1483192e-17
2.2929327e-17
1.662812e-17
1.2006473e-17
8.6315278e-18
6.1778611e-18
4.4019458e-18
3.1223809e-18
2.2046644e-18
1.549528e-18
1.0840463e-18
7.548966e-19
5.2327327e-19
3.6107172e-19
2.4803754e-19
1.6964758e-19
1.1554246e-19
7.8372372e-20
5.2951323e-20
3.5640471e-20
2.3900795e-20
1.5970615e-20
1.0633581e-20
7.054534e-21
4.6628334e-21
3.0701872e-21
2.0134338e-21
1.3148668e-21
8.5488964e-22
5.5327295e-22
3.563689e-22
2.2845877e-22
1.4698958e-22
0.95100224
0.91075822
0.87606289
0.83429091
0.78442369
0.72775433
0.66652568
0.60331907
0.54050815
0.47996772
0.42302068
0.37052235
0.32262361
0.27885981
0.23914289
0.20336405
0.17137153
0.14298163
0.1179863
0.09616043
0.077269525
0.061080078
0.047371047
0.035940125
0.026598286
0.019153659
0.013395188
0.0090870257
0.0059765886
0.0038115695
0.0023585935
0.0014175066
0.00082834725
0.0004712122
0.00026122175
0.00014125899
7.4578303e-05
3.8470732e-05
1.9402904e-05
9.5739609e-06
4.6244077e-06
2.1877449e-06
1.0142354e-06
4.6099741e-07
2.0553403e-07
8.99279e-08
3.8629839e-08
1.6298725e-08
6.7571492e-09
2.7537327e-09
1.1035445e-09
4.3503183e-10
1.68756e-10
6.4436896e-11
2.4224364e-11
8.9675716e-12
3.2687708e-12
1.1727586e-12
4.1460178e-13
1.47496e-13
5.9440561e-14
3.6165182e-14
2.8704612e-14
2.3248044e-14
1.8685799e-14
1.4969885e-14
1.1959437e-14
9.5207986e-15
7.5493436e-15
5.96211e-15
4.6900438e-15
3.6749475e-15
2.8682445e-15
2.2297859e-15
1.7265784e-15
1.3316237e-15
1.0229272e-15
7.8265679e-16
5.9642545e-16
4.5268216e-16
3.4219739e-16
2.5763171e-16
1.9317636e-16
1.4425562e-16
1.0728201e-16
7.9456032e-17
5.8603259e-17
4.3042677e-17
3.148077e-17
2.292683e-17
1.6625595e-17
1.2003969e-17
8.629091e-18
6.1755337e-18
4.3997647e-18
3.1203758e-18
2.2028568e-18
1.5479305e-18
1.082663e-18
7.5372335e-19
5.2229915e-19
3.6028037e-19
2.4740884e-19
1.6915936e-19
1.1517204e-19
7.8097913e-20
5.2752812e-20
3.5500369e-20
2.3804348e-20
1.5905888e-20
1.0591249e-20
7.0275636e-21
4.6461032e-21
3.0600886e-21
2.0075065e-21
1.3114864e-21
8.5301789e-22
5.5226755e-22
3.5584559e-22
2.2820084e-22
1.4698958e-22
0.95100224
0.9091648
0.87439113
0.83175277
0.78090519
0.72322743
0.66114593
0.59737697
0.53435606
0.47394294
0.41738774
0.36543995
0.31821933
0.27518739
0.23619309
0.20108316
0.16967481
0.14176628
0.1171439
0.095588457
0.076881275
0.060811538
0.047181868
0.035807794
0.026509397
0.019097691
0.013362532
0.0090694259
0.0059678224
0.0038075259
0.0023568614
0.0014168157
0.00082809014
0.00047112288
0.00026119289
0.00014125042
7.4576045e-05
3.8470262e-05
1.9402871e-05
9.5740031e-06
4.6244446e-06
2.1877672e-06
1.0142472e-06
4.6100328e-07
2.0553682e-07
8.9929195e-08
3.8630424e-08
1.6298983e-08
6.7572613e-09
2.7537803e-09
1.1035644e-09
4.3503997e-10
1.6875927e-10
6.4438194e-11
2.4224869e-11
8.9677651e-12
3.2688438e-12
1.1727857e-12
4.1461172e-13
1.4749963e-13
5.9441873e-14
3.6165502e-14
2.8704653e-14
2.3248062e-14
1.8685816e-14
1.49699e-14
1.1959449e-14
9.5208081e-15
7.5493514e-15
5.9621163e-15
4.690049e-15
3.6749517e-15
2.8682478e-15
2.2297886e-15
1.7265805e-15
1.3316253e-15
1.0229284e-15
7.8265769e-16
5.9642608e-16
4.5268255e-16
3.4219758e-16
2.5763174e-16
1.9317624e-16
1.4425537e-16
1.0728166e-16
7.9455584e-17
5.8602734e-17
4.304209e-17
3.1480136e-17
2.2926165e-17
1.6624915e-17
1.2003288e-17
8.6284232e-18
6.1748921e-18
4.3991604e-18
3.1198177e-18
2.2023514e-18
1.547482e-18
1.0822731e-18
7.5339141e-19
5.2202265e-19
3.6005516e-19
2.4722959e-19
1.6902003e-19
1.1506636e-19
7.8019728e-20
5.269642e-20
3.5460729e-20
2.3777197e-20
1.5887758e-20
1.0579451e-20
7.0200863e-21
4.6414882e-21
3.0573159e-21
2.0058855e-21
1.3105648e-21
8.5250879e-22
5.5199453e-22
3.5570366e-22
2.2813252e-22
1.4698958e-22
0.95100224
0.90874047
0.87486425
0.83234497
0.78168098
0.72422606
0.6624662
0.59912494
0.53660137
0.47668452
0.42053878
0.36882947
0.32170519
0.27865453
0.23952569
0.20417912
0.17245146
0.1441639
0.11912835
0.097152951
0.07804711
0.06162663
0.047714015
0.03613205
0.026694334
0.019196796
0.013412575
0.0090932754
0.0059785616
0.0038121007
0.0023587081
0.0014175234
0.00082834825
0.00047121277
0.00026122294
0.00014126015
7.4579151e-05
3.8471264e-05
1.940321e-05
9.5741274e-06
4.6244947e-06
2.1877889e-06
1.0142571e-06
4.6100784e-07
2.0553893e-07
8.9930154e-08
3.8630854e-08
1.6299173e-08
6.7573433e-09
2.7538151e-09
1.1035789e-09
4.3504593e-10
1.6876167e-10
6.4439143e-11
2.4225238e-11
8.9679066e-12
3.2688971e-12
1.1728055e-12
4.1461899e-13
1.4750228e-13
5.9442832e-14
3.6165736e-14
2.8704683e-14
2.3248075e-14
1.8685828e-14
1.496991e-14
1.1959457e-14
9.520815e-15
7.5493571e-15
5.962121e-15
4.6900528e-15
3.6749548e-15
2.8682504e-15
2.2297907e-15
1.7265822e-15
1.3316267e-15
1.0229296e-15
7.8265866e-16
5.9642692e-16
4.5268329e-16
3.4219826e-16
2.5763238e-16
1.9317686e-16
1.4425599e-16
1.0728228e-16
7.9456216e-17
5.8603379e-17
4.3042747e-17
3.1480802e-17
2.2926832e-17
1.6625575e-17
1.2003932e-17
8.6290427e-18
6.1754775e-18
4.3997039e-18
3.120313e-18
2.2027943e-18
1.5478704e-18
1.0826068e-18
7.5367247e-19
5.222545e-19
3.6024249e-19
2.4737781e-19
1.6913489e-19
1.151535e-19
7.8084444e-20
5.2743454e-20
3.5494163e-20
2.3800425e-20
1.5903488e-20
1.0589832e-20
7.0267622e-21
4.6456673e-21
3.0598596e-21
2.0073894e-21
1.3114275e-21
8.5298867e-22
5.5225316e-22
3.5583866e-22
2.2820163e-22
1.4698958e-22
0.95100224
0.90922034
0.87693096
0.83527078
0.78565885
0.72933197
0.66873532
0.60650387
0.54493449
0.48571698
0.42993556
0.37820115
0.33072601
0.2871038
0.24722478
0.21100189
0.17832379
0.14906022
0.12306778
0.10019509
0.080287576
0.063190604
0.048744386
0.036771726
0.027068688
0.019403435
0.013520148
0.0091460579
0.0060029617
0.0038227297
0.002363075
0.001419218
0.00082897046
0.00047142942
0.00026129468
0.00014128284
7.4586049e-05
3.8473305e-05
1.940381e-05
9.5743083e-06
4.6245531e-06
2.1878098e-06
1.0142653e-06
4.6101136e-07
2.0554049e-07
8.9930851e-08
3.8631164e-08
1.6299309e-08
6.7574022e-09
2.7538401e-09
1.1035893e-09
4.350502e-10
1.6876339e-10
6.4439823e-11
2.4225503e-11
8.968008e-12
3.2689353e-12
1.1728197e-12
4.146242e-13
1.4750418e-13
5.9443519e-14
3.6165904e-14
2.8704704e-14
2.3248085e-14
1.8685837e-14
1.4969918e-14
1.1959463e-14
9.52082e-15
7.5493612e-15
5.9621244e-15
4.6900556e-15
3.6749571e-15
2.8682523e-15
2.2297923e-15
1.7265836e-15
1.3316279e-15
1.0229306e-15
7.8265966e-16
5.9642789e-16
4.5268427e-16
3.4219927e-16
2.5763344e-16
1.9317799e-16
1.442572e-16
1.0728358e-16
7.9457609e-17
5.8604851e-17
4.3044284e-17
3.1482386e-17
2.2928441e-17
1.6627185e-17
1.2005516e-17
8.6305736e-18
6.1769319e-18
4.4010606e-18
3.1215551e-18
2.2039097e-18
1.5488524e-18
1.0834543e-18
7.5438879e-19
5.2284746e-19
3.6072296e-19
2.4775881e-19
1.6943043e-19
1.1537771e-19
7.8250732e-20
5.286398e-20
3.5579497e-20
2.3859411e-20
1.5943239e-20
1.0615939e-20
7.0434687e-21
4.6560758e-21
3.0661677e-21
2.011105e-21
1.3135528e-21
8.5416819e-22
5.5288785e-22
3.5616954e-22
2.2836778e-22
1.4698958e-22
0.95100224
0.9103804
0.88012005
0.83985129
0.79191445
0.73736129
0.6785182
0.61786239
0.55754596
0.49914692
0.44368229
0.39173849
0.34360257
0.29902999
0.25798082
0.22044499
0.18638372
0.1557314
0.12840175
0.10429349
0.083295261
0.065286555
0.050125879
0.037631729
0.027574323
0.019684186
0.013667235
0.0092186818
0.0060367273
0.0038375113
0.0023691722
0.0014215907
0.00082984311
0.00047173333
0.00026139514
0.00014131445
7.4595558e-05
3.8476059e-05
1.9404587e-05
9.5745272e-06
4.6246167e-06
2.1878298e-06
1.0142723e-06
4.6101409e-07
2.0554163e-07
8.9931351e-08
3.8631384e-08
1.6299405e-08
6.7574435e-09
2.7538576e-09
1.1035967e-09
4.3505319e-10
1.6876459e-10
6.44403e-11
2.4225689e-11
8.9680791e-12
3.2689621e-12
1.1728296e-12
4.1462785e-13
1.4750551e-13
5.9444001e-14
3.6166022e-14
2.8704719e-14
2.3248091e-14
1.8685844e-14
1.4969923e-14
1.1959468e-14
9.5208235e-15
7.5493641e-15
5.9621268e-15
4.6900576e-15
3.6749588e-15
2.8682537e-15
2.2297935e-15
1.7265847e-15
1.3316289e-15
1.0229316e-15
7.8266067e-16
5.9642894e-16
4.526854e-16
3.422005e-16
2.5763479e-16
1.9317948e-16
1.4425883e-16
1.0728536e-16
7.9459522e-17
5.8606888e-17
4.3046424e-17
3.14846e-17
2.2930696e-17
1.6629445e-17
1.2007743e-17
8.6327303e-18
6.1789834e-18
4.4029764e-18
3.1233109e-18
2.2054881e-18
1.5502436e-18
1.0846559e-18
7.5540552e-19
5.2368983e-19
3.6140608e-19
2.4830082e-19
1.6985105e-19
1.1569683e-19
7.8487365e-20
5.3035403e-20
3.5700765e-20
2.3943143e-20
1.5999605e-20
1.065292e-20
7.0671069e-21
4.6707864e-21
3.0750736e-21
2.0163459e-21
1.3165482e-21
8.5582957e-22
5.5378143e-22
3.566352e-22
2.2860066e-22
1.4698958e-22
0.95100224
0.91203439
0.8840401
0.84552288
0.79968341
0.74734544
0.69065931
0.63189692
0.57303905
0.51554716
0.46038367
0.40813699
0.35915933
0.3134061
0.27092363
0.23179267
0.1960594
0.16373306
0.13479358
0.10919849
0.08688841
0.06778469
0.05176835
0.038652016
0.028173408
0.020016702
0.013841519
0.0093048193
0.0060768272
0.0038550896
0.0023764319
0.0014244188
0.00083088387
0.00047209584
0.00026151489
0.00014135205
7.4606819e-05
3.8479291e-05
1.9405483e-05
9.5747707e-06
4.6246834e-06
2.1878489e-06
1.0142784e-06
4.6101623e-07
2.0554248e-07
8.9931704e-08
3.8631536e-08
1.6299471e-08
6.7574719e-09
2.7538697e-09
1.1036017e-09
4.3505524e-10
1.6876542e-10
6.4440627e-11
2.4225816e-11
8.9681278e-12
3.2689805e-12
1.1728364e-12
4.1463035e-13
1.4750642e-13
5.9444331e-14
3.6166102e-14
2.8704729e-14
2.3248096e-14
1.8685848e-14
1.4969926e-14
1.1959471e-14
9.5208259e-15
7.5493661e-15
5.9621285e-15
4.6900591e-15
3.6749601e-15
2.8682548e-15
2.2297945e-15
1.7265856e-15
1.3316298e-15
1.0229326e-15
7.8266167e-16
5.9643004e-16
4.5268661e-16
3.4220186e-16
2.5763632e-16
1.9318119e-16
1.4426073e-16
1.0728744e-16
7.9461778e-17
5.8609298e-17
4.3048962e-17
3.1487231e-17
2.293338e-17
1.6632137e-17
1.2010397e-17
8.6353029e-18
6.181432e-18
4.4052644e-18
3.1254089e-18
2.2073752e-18
1.5519078e-18
1.0860943e-18
7.5662336e-19
5.2469944e-19
3.6222527e-19
2.489511e-19
1.7035586e-19
1.1607992e-19
7.8771446e-20
5.3241173e-20
3.5846289e-20
2.4043578e-20
1.6067187e-20
1.0697239e-20
7.0954214e-21
4.6883973e-21
3.0857294e-21
2.0226132e-21
1.3201285e-21
8.5781451e-22
5.5484865e-22
3.5719118e-22
2.2887835e-22
1.4698958e-22
0.95100224
0.91403084
0.88837584
0.85183085
0.80834905
0.75850809
0.70424358
0.64759198
0.59034689
0.53385139
0.47902104
0.42645892
0.37658243
0.32954315
0.28549008
0.24460042
0.2070118
0.17281478
0.14206287
0.1147816
0.090975001
0.070618278
0.053623477
0.03979866
0.028843464
0.020387149
0.014035125
0.0094003255
0.0061212399
0.0038745488
0.0023844675
0.0014275494
0.00083203616
0.00047249721
0.00026164745
0.00014139364
7.4619248e-05
3.8482841e-05
1.9406458e-05
9.5750305e-06
4.6247519e-06
2.1878673e-06
1.0142837e-06
4.6101794e-07
2.055431e-07
8.9931953e-08
3.8631641e-08
1.6299516e-08
6.757491e-09
2.7538777e-09
1.103605e-09
4.3505662e-10
1.6876597e-10
6.4440846e-11
2.4225901e-11
8.9681605e-12
3.2689928e-12
1.172841e-12
4.1463203e-13
1.4750704e-13
5.9444553e-14
3.6166156e-14
2.8704736e-14
2.3248099e-14
1.8685851e-14
1.4969929e-14
1.1959473e-14
9.5208276e-15
7.5493675e-15
5.9621297e-15
4.6900601e-15
3.674961e-15
2.8682556e-15
2.2297953e-15
1.7265864e-15
1.3316306e-15
1.0229335e-15
7.8266266e-16
5.9643115e-16
4.5268788e-16
3.4220331e-16
2.5763797e-16
1.9318305e-16
1.442628e-16
1.0728972e-16
7.9464253e-17
5.8611948e-17
4.3051755e-17
3.1490129e-17
2.2936338e-17
1.6635106e-17
1.2013327e-17
8.6381431e-18
6.1841363e-18
4.4077924e-18
3.127728e-18
2.2094621e-18
1.5537492e-18
1.0876865e-18
7.5797214e-19
5.2581818e-19
3.6313346e-19
2.4967237e-19
1.7091602e-19
1.1650516e-19
7.9086856e-20
5.3469663e-20
3.6007879e-20
2.4155087e-20
1.6142212e-20
1.0746432e-20
7.1268425e-21
4.7079345e-21
3.0975465e-21
2.0295608e-21
1.3240958e-21
8.600132e-22
5.5603038e-22
3.5780662e-22
2.2918572e-22
1.4698958e-22
0.95100224
0.9162498
0.89288151
0.85841937
0.8174269
0.77024037
0.7185582
0.66416555
0.60866034
0.55326559
0.49885221
0.44604028
0.39530937
0.34698295
0.30132405
0.25860534
0.2190577
0.1828566
0.1501354
0.12099779
0.095525855
0.07376551
0.055673234
0.04105695
0.029573479
0.020788132
0.014243594
0.0095027572
0.0061687416
0.0038953242
0.0023930379
0.0014308866
0.00083326435
0.00047292505
0.00026178875
0.00014143797
7.4632482e-05
3.8486611e-05
1.9407487e-05
9.5753015e-06
4.6248216e-06
2.1878853e-06
1.0142885e-06
4.6101934e-07
2.0554356e-07
8.9932128e-08
3.8631712e-08
1.6299545e-08
6.7575036e-09
2.753883e-09
1.1036072e-09
4.3505752e-10
1.6876634e-10
6.4440989e-11
2.4225957e-11
8.9681818e-12
3.2690009e-12
1.172844e-12
4.1463313e-13
1.4750744e-13
5.9444698e-14
3.6166192e-14
2.870474e-14
2.3248101e-14
1.8685853e-14
1.496993e-14
1.1959474e-14
9.5208287e-15
7.5493685e-15
5.9621305e-15
4.6900608e-15
3.6749616e-15
2.8682563e-15
2.2297959e-15
1.7265871e-15
1.3316314e-15
1.0229343e-15
7.8266362e-16
5.9643227e-16
4.5268918e-16
3.4220481e-16
2.5763969e-16
1.9318499e-16
1.4426498e-16
1.0729212e-16
7.9466864e-17
5.8614746e-17
4.3054707e-17
3.1493194e-17
2.2939468e-17
1.663825e-17
1.201643e-17
8.6411522e-18
6.1870024e-18
4.4104726e-18
3.1301877e-18
2.2116764e-18
1.5557037e-18
1.0893774e-18
7.5940522e-19
5.2700746e-19
3.6409943e-19
2.5043994e-19
1.7151243e-19
1.1695812e-19
7.9422967e-20
5.3713226e-20
3.6180166e-20
2.427399e-20
1.6222221e-20
1.0798898e-20
7.1603537e-21
4.7287688e-21
3.1101455e-21
2.036966e-21
1.328323e-21
8.6235505e-22
5.572886e-22
3.5846169e-22
2.2951315e-22
1.4698958e-22
0.95100224
0.91859955
0.89737121
0.86501883
0.82654695
0.78207548
0.73305725
0.68102184
0.62736837
0.57319734
0.51933215
0.46640471
0.41494661
0.36541903
0.31820323
0.27366082
0.23211344
0.19382253
0.15900632
0.12785772
0.10055475
0.077236043
0.057921296
0.042426214
0.030360956
0.021217114
0.014465077
0.0096109942
0.0062187363
0.0039171312
0.0024020191
0.001434381
0.00083455005
0.00047337298
0.00026193673
0.0001414844
7.4646345e-05
3.8490557e-05
1.9408561e-05
9.5755825e-06
4.6248928e-06
2.187903e-06
1.014293e-06
4.6102055e-07
2.0554393e-07
8.9932252e-08
3.8631759e-08
1.6299565e-08
6.7575117e-09
2.7538864e-09
1.1036086e-09
4.3505809e-10
1.6876657e-10
6.4441081e-11
2.4225993e-11
8.9681955e-12
3.269006e-12
1.1728459e-12
4.1463383e-13
1.4750769e-13
5.944479e-14
3.6166214e-14
2.8704743e-14
2.3248102e-14
1.8685854e-14
1.4969931e-14
1.1959475e-14
9.5208294e-15
7.5493691e-15
5.9621311e-15
4.6900613e-15
3.6749621e-15
2.8682568e-15
2.2297965e-15
1.7265877e-15
1.3316321e-15
1.0229351e-15
7.8266457e-16
5.9643339e-16
4.5269049e-16
3.4220633e-16
2.5764144e-16
1.9318699e-16
1.4426722e-16
1.072946e-16
7.9469561e-17
5.8617639e-17
4.3057762e-17
3.1496367e-17
2.294271e-17
1.6641506e-17
1.2019646e-17
8.6442716e-18
6.1899746e-18
4.4132529e-18
3.13274e-18
2.213975e-18
1.5577336e-18
1.0911344e-18
7.6089498e-19
5.2824446e-19
3.6510475e-19
2.5123926e-19
1.7213389e-19
1.1743039e-19
7.9773604e-20
5.3967444e-20
3.6360067e-20
2.439819e-20
1.6305823e-20
1.0853737e-20
7.1953867e-21
4.7505502e-21
3.1233162e-21
2.0447058e-21
1.33274e-21
8.6480125e-22
5.5860241e-22
3.5914547e-22
2.2985548e-22
1.4698958e-22
0.95100224
0.92101439
0.90170637
0.87143071
0.83543388
0.79366316
0.74732904
0.69771085
0.64601001
0.59320124
0.54005363
0.48720042
0.43520969
0.38463953
0.33598622
0.28968912
0.24615384
0.20572622
0.16871269
0.13540682
0.10610339
0.081060869
0.060386613
0.043915968
0.031209731
0.021675233
0.01469974
0.0097249522
0.0062711288
0.003939912
0.0024113835
0.0014380212
0.00083588925
0.00047383975
0.00026209106
0.00014153287
7.4660825e-05
3.849468e-05
1.9409682e-05
9.5758746e-06
4.6249661e-06
2.187921e-06
1.0142973e-06
4.6102164e-07
2.0554422e-07
8.9932343e-08
3.8631791e-08
1.6299577e-08
6.7575168e-09
2.7538885e-09
1.1036095e-09
4.3505845e-10
1.6876671e-10
6.4441137e-11
2.4226015e-11
8.9682039e-12
3.2690092e-12
1.1728471e-12
4.1463426e-13
1.4750785e-13
5.9444847e-14
3.6166228e-14
2.8704745e-14
2.3248103e-14
1.8685855e-14
1.4969932e-14
1.1959475e-14
9.5208299e-15
7.5493695e-15
5.9621315e-15
4.6900617e-15
3.6749625e-15
2.8682572e-15
2.229797e-15
1.7265883e-15
1.3316327e-15
1.0229359e-15
7.8266551e-16
5.9643451e-16
4.5269182e-16
3.4220788e-16
2.5764323e-16
1.9318902e-16
1.442695e-16
1.0729713e-16
7.9472323e-17
5.8620603e-17
4.3060892e-17
3.1499621e-17
2.2946036e-17
1.6644848e-17
1.2022946e-17
8.6474747e-18
6.1930275e-18
4.4161097e-18
3.1353637e-18
2.2163389e-18
1.559822e-18
1.0929429e-18
7.6242939e-19
5.2951931e-19
3.6614153e-19
2.5206417e-19
1.7277572e-19
1.1791851e-19
8.0136272e-20
5.4230569e-20
3.654639e-20
2.4526895e-20
1.6392507e-20
1.0910627e-20
7.2317426e-21
4.773159e-21
3.1369881e-21
2.0527395e-21
1.3373238e-21
8.6733917e-22
5.5996505e-22
3.5985444e-22
2.3021114e-22
1.4698958e-22
0.95100224
0.92345712
0.90577886
0.87750989
0.84388474
0.80474321
0.76106544
0.71389351
0.66423565
0.61293727
0.5607036
0.50815584
0.45587993
0.40448629
0.35457434
0.30664655
0.26118136
0.21860462
0.17931187
0.14370862
0.11222938
0.085284249
0.063098388
0.045542977
0.032128338
0.022166422
0.014949309
0.0098453733
0.0063262322
0.0039637971
0.002421185
0.0014418292
0.00083729056
0.0004743286
0.0002622529
0.00014158377
7.4676057e-05
3.8499022e-05
1.9410864e-05
9.576182e-06
4.625043e-06
2.1879395e-06
1.0143017e-06
4.6102268e-07
2.0554448e-07
8.9932414e-08
3.8631814e-08
1.6299585e-08
6.7575199e-09
2.7538898e-09
1.10361e-09
4.3505866e-10
1.6876679e-10
6.444117e-11
2.4226028e-11
8.9682088e-12
3.269011e-12
1.1728478e-12
4.1463452e-13
1.4750794e-13
5.944488e-14
3.6166236e-14
2.8704746e-14
2.3248104e-14
1.8685855e-14
1.4969933e-14
1.1959476e-14
9.5208302e-15
7.5493698e-15
5.9621318e-15
4.690062e-15
3.6749628e-15
2.8682576e-15
2.2297974e-15
1.7265888e-15
1.3316334e-15
1.0229367e-15
7.8266646e-16
5.9643564e-16
4.5269316e-16
3.4220946e-16
2.5764505e-16
1.931911e-16
1.4427184e-16
1.0729972e-16
7.9475147e-17
5.8623636e-17
4.3064098e-17
3.1502954e-17
2.2949444e-17
1.6648275e-17
1.2026332e-17
8.6507615e-18
6.1961615e-18
4.4190437e-18
3.1380595e-18
2.2187688e-18
1.56197e-18
1.0948041e-18
7.6400953e-19
5.308331e-19
3.6721079e-19
2.5291564e-19
1.734388e-19
1.1842325e-19
8.0511624e-20
5.450314e-20
3.6739566e-20
2.4660436e-20
1.6482514e-20
1.0969738e-20
7.2695388e-21
4.796672e-21
3.1512096e-21
2.0610965e-21
1.3420918e-21
8.6997854e-22
5.6138181e-22
3.6059139e-22
2.3058164e-22
1.4698958e-22
0.95100224
0.92592148
0.90948654
0.88314293
0.85174256
0.81511661
0.77403156
0.72931056
0.68177513
0.6321387
0.58103109
0.52904796
0.47677303
0.42482506
0.37388327
0.32449678
0.27720155
0.23249604
0.19086293
0.15282997
0.11899547
0.089956616
0.066091796
0.04732886
0.033128739
0.022696776
0.015216743
0.0099736731
0.0063847027
0.0039890801
0.0024315498
0.0014458565
0.00083877414
0.00047484703
0.00026242488
0.000141638
7.4692319e-05
3.8503668e-05
1.941213e-05
9.5765117e-06
4.6251252e-06
2.1879592e-06
1.0143063e-06
4.6102372e-07
2.0554472e-07
8.9932471e-08
3.8631829e-08
1.629959e-08
6.7575216e-09
2.7538905e-09
1.1036103e-09
4.3505876e-10
1.6876684e-10
6.4441187e-11
2.4226034e-11
8.9682114e-12
3.269012e-12
1.1728481e-12
4.1463465e-13
1.4750799e-13
5.9444898e-14
3.6166241e-14
2.8704747e-14
2.3248104e-14
1.8685855e-14
1.4969933e-14
1.1959476e-14
9.5208304e-15
7.54937e-15
5.962132e-15
4.6900622e-15
3.6749631e-15
2.8682579e-15
2.2297978e-15
1.7265893e-15
1.331634e-15
1.0229375e-15
7.8266741e-16
5.9643679e-16
4.5269453e-16
3.4221106e-16
2.5764691e-16
1.9319323e-16
1.4427424e-16
1.0730238e-16
7.9478052e-17
5.8626758e-17
4.3067399e-17
3.1506388e-17
2.2952957e-17
1.6651808e-17
1.2029825e-17
8.6541546e-18
6.1993985e-18
4.4220758e-18
3.140847e-18
2.2212831e-18
1.564194e-18
1.0967326e-18
7.6564805e-19
5.3219659e-19
3.6832153e-19
2.5380099e-19
1.7412898e-19
1.1894916e-19
8.090315e-20
5.4787756e-20
3.6941482e-20
2.4800151e-20
1.6576768e-20
1.1031688e-20
7.3091759e-21
4.8213424e-21
3.1661359e-21
2.0698692e-21
1.347097e-21
8.7274909e-22
5.6286879e-22
3.6136478e-22
2.3097119e-22
1.4698958e-22
0.95100224
0.92833501
0.91284405
0.88830727
0.85896834
0.82470907
0.78610896
0.74379872
0.69842835
0.6505868
0.6008235
0.54967971
0.49771499
0.44552311
0.39382099
0.34318898
0.29420191
0.2474203
0.20340903
0.16282662
0.12645894
0.095127609
0.06940391
0.04929791
0.034225245
0.023274044
0.015505972
0.010111828
0.0064474952
0.0040162019
0.002442671
0.0014501835
0.00084037148
0.0004754067
0.00026261111
0.00014169689
7.4710041e-05
3.8508747e-05
1.9413517e-05
9.5768737e-06
4.6252155e-06
2.1879808e-06
1.0143112e-06
4.6102482e-07
2.0554496e-07
8.9932522e-08
3.863184e-08
1.6299593e-08
6.7575224e-09
2.7538907e-09
1.1036104e-09
4.350588e-10
1.6876685e-10
6.4441193e-11
2.4226036e-11
8.9682121e-12
3.2690123e-12
1.1728482e-12
4.1463469e-13
1.47508e-13
5.9444903e-14
3.6166242e-14
2.8704747e-14
2.3248104e-14
1.8685856e-14
1.4969933e-14
1.1959476e-14
9.5208305e-15
7.5493701e-15
5.9621321e-15
4.6900624e-15
3.6749634e-15
2.8682582e-15
2.2297982e-15
1.7265898e-15
1.3316346e-15
1.0229383e-15
7.8266838e-16
5.9643797e-16
4.5269594e-16
3.4221273e-16
2.5764884e-16
1.9319544e-16
1.4427673e-16
1.0730514e-16
7.948107e-17
5.8630004e-17
4.3070834e-17
3.1509963e-17
2.2956618e-17
1.6655493e-17
1.203347e-17
8.6576971e-18
6.2027805e-18
4.425246e-18
3.1437637e-18
2.2239159e-18
1.5665248e-18
1.0987555e-18
7.673684e-19
5.3362963e-19
3.6949018e-19
2.5473357e-19
1.7485682e-19
1.1950444e-19
8.1317037e-20
5.5088984e-20
3.7155424e-20
2.4948342e-20
1.6676836e-20
1.1097516e-20
7.351324e-21
4.8475901e-21
3.182023e-21
2.079209e-21
1.3524267e-21
8.7569945e-22
5.6445236e-22
3.6218844e-22
2.3138649e-22
1.4698958e-22
0.95100224
0.93064265
0.91589622
0.89302413
0.86558392
0.83352826
0.79728296
0.75731471
0.71412055
0.668172
0.61993257
0.56987927
0.51852971
0.46643113
0.4142691
0.36263826
0.31213198
0.26335893
0.21695909
0.17372782
0.13466004
0.10083855
0.073069389
0.051474886
0.035433471
0.023907199
0.015821678
0.010262285
0.0065158298
0.0040457399
0.002454807
0.0014549188
0.00084212559
0.00047602363
0.00026281721
0.00014176234
7.472981e-05
3.8514433e-05
1.9415076e-05
9.5772815e-06
4.6253174e-06
2.1880051e-06
1.0143168e-06
4.6102603e-07
2.055452e-07
8.9932569e-08
3.8631848e-08
1.6299594e-08
6.7575222e-09
2.7538906e-09
1.1036103e-09
4.3505877e-10
1.6876684e-10
6.4441187e-11
2.4226034e-11
8.9682114e-12
3.269012e-12
1.1728481e-12
4.1463465e-13
1.4750799e-13
5.9444898e-14
3.6166241e-14
2.8704747e-14
2.3248104e-14
1.8685856e-14
1.4969933e-14
1.1959476e-14
9.5208305e-15
7.5493702e-15
5.9621322e-15
4.6900626e-15
3.6749636e-15
2.8682585e-15
2.2297986e-15
1.7265903e-15
1.3316353e-15
1.0229391e-15
7.8266939e-16
5.964392e-16
4.5269741e-16
3.4221447e-16
2.5765087e-16
1.9319776e-16
1.4427934e-16
1.0730805e-16
7.948425e-17
5.8633426e-17
4.3074458e-17
3.1513739e-17
2.2960487e-17
1.6659389e-17
1.2037327e-17
8.6614488e-18
6.2063647e-18
4.4286079e-18
3.146859e-18
2.2267119e-18
1.569002e-18
1.1009072e-18
7.6920001e-19
5.3515688e-19
3.7073705e-19
2.5572981e-19
1.7563543e-19
1.2009937e-19
8.17612e-20
5.5412807e-20
3.7385827e-20
2.5108221e-20
1.6784933e-20
1.1168682e-20
7.3969205e-21
4.8760006e-21
3.1992264e-21
2.0893261e-21
1.3582015e-21
8.7889701e-22
5.6616901e-22
3.6308158e-22
2.318366e-22
1.4698958e-22
0.95100224
0.93280587
0.91868416
0.89732845
0.87163128
0.84161384
0.80758223
0.76986745
0.72883371
0.68484371
0.63827288
0.58952597
0.53906192
0.48736956
0.43505401
0.3826973
0.33088283
0.28023417
0.23146786
0.18551918
0.143609
0.10711385
0.077115629
0.053882595
0.036769225
0.024605972
0.016168751
0.010426311
0.0065898141
0.0040775563
0.0024678347
0.0014599926
0.00084400394
0.00047668449
0.00026303822
0.00014183262
7.4751076e-05
3.8520561e-05
1.9416759e-05
9.5777222e-06
4.6254275e-06
2.1880314e-06
1.0143227e-06
4.6102729e-07
2.0554545e-07
8.993261e-08
3.8631852e-08
1.6299592e-08
6.7575212e-09
2.75389e-09
1.1036101e-09
4.3505866e-10
1.6876679e-10
6.444117e-11
2.4226028e-11
8.9682088e-12
3.269011e-12
1.1728478e-12
4.1463452e-13
1.4750794e-13
5.9444881e-14
3.6166236e-14
2.8704746e-14
2.3248104e-14
1.8685855e-14
1.4969933e-14
1.1959476e-14
9.5208305e-15
7.5493702e-15
5.9621323e-15
4.6900627e-15
3.6749638e-15
2.8682588e-15