# vtk DataFile Version 3.0
Local 2D buoyant multi-species CFD field
ASCII
DATASET STRUCTURED_POINTS
DIMENSIONS 101 25 1
ORIGIN -2.2737368e-13 -0.6 0
SPACING 12 0.05 1
POINT_DATA 2525
SCALARS x_H2 float 1
LOOKUP_TABLE default
0.95100224
0.93304663
0.90975494
0.88040632
0.84474123
0.80239961
0.7533055
0.69726514
0.6352963
0.56901609
0.50001314
0.4301464
0.36167682
0.29686647
0.23731054
0.18431349
0.13870681
0.10143157
0.072056004
0.049438971
0.032667836
0.020712203
0.0127649
0.0076581364
0.0044133441
0.0024343144
0.0012783146
0.00065768048
0.00033276633
0.00016141304
7.4689326e-05
3.2702311e-05
1.4205963e-05
6.1628807e-06
2.5624928e-06
1.0141619e-06
3.7750944e-07
1.4124557e-07
5.3669327e-08
1.954151e-08
6.7562288e-09
2.181847e-09
7.1637083e-10
2.4282697e-10
7.8820894e-11
2.4220209e-11
6.8947743e-12
2.0125416e-12
6.151576e-13
1.821412e-13
5.9429776e-14
3.3960208e-14
2.6382108e-14
2.0404875e-14
1.5666442e-14
1.1959343e-14
9.0635846e-15
6.852393e-15
5.1649808e-15
3.8641637e-15
2.8682188e-15
2.1110633e-15
1.5512867e-15
1.1372239e-15
8.2707506e-16
5.9642767e-16
4.2618929e-16
3.0427647e-16
2.1685209e-16
1.5323912e-16
1.0730205e-16
7.4393616e-17
5.1573591e-17
3.5714589e-17
2.4508552e-17
1.6653733e-17
1.1194722e-17
7.5310499e-18
5.0647833e-18
3.3732009e-18
2.2228349e-18
1.4476357e-18
9.4442342e-19
6.164831e-19
3.9825203e-19
2.5434118e-19
1.6036356e-19
1.0139305e-19
6.420882e-20
4.0212071e-20
2.4874562e-20
1.5173656e-20
9.2926333e-21
5.7064066e-21
3.462901e-21
2.0736979e-21
1.2230695e-21
7.2512214e-22
4.3161219e-22
2.5368407e-22
1.4698958e-22
0.95100224
0.91154291
0.87051374
0.82204012
0.76546017
0.70308727
0.63744575
0.57095127
0.50507376
0.44093928
0.37933102
0.32104263
0.26713785
0.2181706
0.17463474
0.13683526
0.10485778
0.078672599
0.057659174
0.041002611
0.028127623
0.018528888
0.011802517
0.0072550157
0.0042562288
0.0023783364
0.0012610724
0.00065283962
0.00033142407
0.00016106122
7.460551e-05
3.2685681e-05
1.4203096e-05
6.1624412e-06
2.5624716e-06
1.0141868e-06
3.7752684e-07
1.4125281e-07
5.3672023e-08
1.9542604e-08
6.7566519e-09
2.1820076e-09
7.1642209e-10
2.4284297e-10
7.8826548e-11
2.4222135e-11
6.8954174e-12
2.0127217e-12
6.1520744e-13
1.8215723e-13
5.9434802e-14
3.3961132e-14
2.6382191e-14
2.0404939e-14
1.5666495e-14
1.1959384e-14
9.0636196e-15
6.8524195e-15
5.1649999e-15
3.8641782e-15
2.8682295e-15
2.1110712e-15
1.551291e-15
1.137225e-15
8.2707377e-16
5.9642408e-16
4.2618357e-16
3.042682e-16
2.168413e-16
1.5322618e-16
1.0728717e-16
7.4377123e-17
5.1555419e-17
3.5695015e-17
2.4488301e-17
1.6633387e-17
1.1175024e-17
7.5121331e-18
5.0469003e-18
3.3569211e-18
2.2084622e-18
1.4355327e-18
9.3436609e-19
6.0823148e-19
3.917372e-19
2.4937182e-19
1.5678812e-19
9.886872e-20
6.2443988e-20
3.9025448e-20
2.4106987e-20
1.4710835e-20
9.0206637e-21
5.5476466e-21
3.3738612e-21
2.0259086e-21
1.199485e-21
7.1389476e-22
4.2628748e-22
2.5129356e-22
1.4698958e-22
0.95100224
0.89759806
0.84574943
0.78537874
0.71622064
0.64240143
0.56804101
0.49638063
0.42944848
0.36830331
0.31282359
0.26248759
0.21737454
0.17750696
0.14280377
0.11308764
0.088078154
0.067404586
0.050476649
0.036720724
0.025773296
0.017369836
0.011280472
0.0070327026
0.0041686115
0.0023468978
0.0012513422
0.00065009967
0.00033066335
0.00016086197
7.4558213e-05
3.2676411e-05
1.420155e-05
6.1622271e-06
2.5624761e-06
1.0142083e-06
3.7753998e-07
1.4125812e-07
5.367399e-08
1.9543399e-08
6.756959e-09
2.1821241e-09
7.1645927e-10
2.4285457e-10
7.883065e-11
2.4223533e-11
6.895884e-12
2.0128524e-12
6.1524361e-13
1.8216887e-13
5.9438448e-14
3.3961803e-14
2.6382251e-14
2.0404986e-14
1.5666534e-14
1.1959414e-14
9.063645e-15
6.8524388e-15
5.1650139e-15
3.8641889e-15
2.8682374e-15
2.1110772e-15
1.5512947e-15
1.1372265e-15
8.2707368e-16
5.9642253e-16
4.261807e-16
3.0426377e-16
2.1683535e-16
1.5321896e-16
1.0727881e-16
7.4367819e-17
5.1545133e-17
3.5683914e-17
2.4476804e-17
1.6621828e-17
1.1163828e-17
7.5013771e-18
5.0367295e-18
3.3476616e-18
2.2002883e-18
1.4286501e-18
9.2864724e-19
6.0354124e-19
3.8803612e-19
2.4655112e-19
1.5475988e-19
9.7437546e-20
6.1444372e-20
3.8353964e-20
2.3673137e-20
1.4449387e-20
8.8670536e-21
5.4579972e-21
3.3235799e-21
1.9989202e-21
1.1861582e-21
7.0754461e-22
4.2327319e-22
2.4994333e-22
1.4698958e-22
0.95100224
0.88932847
0.83233228
0.76557174
0.69002276
0.6108409
0.53297763
0.45994845
0.39364752
0.33484034
0.28297957
0.23689022
0.19624132
0.1607484
0.13008681
0.10389247
0.081756114
0.063225205
0.047800074
0.035084053
0.024840763
0.016893536
0.011058345
0.0069353564
0.0041295029
0.0023326947
0.001246912
0.00064884599
0.00033031454
0.00016077081
7.4536774e-05
3.267234e-05
1.420093e-05
6.162168e-06
2.5624967e-06
1.0142265e-06
3.7754965e-07
1.4126192e-07
5.3675379e-08
1.9543958e-08
6.7571748e-09
2.1822058e-09
7.1648538e-10
2.4286272e-10
7.883353e-11
2.4224514e-11
6.8962115e-12
2.0129441e-12
6.1526899e-13
1.8217704e-13
5.9441008e-14
3.3962274e-14
2.6382293e-14
2.0405018e-14
1.5666561e-14
1.1959436e-14
9.0636629e-15
6.8524524e-15
5.1650239e-15
3.8641966e-15
2.8682433e-15
2.1110818e-15
1.5512976e-15
1.1372281e-15
8.2707435e-16
5.9642235e-16
4.2617981e-16
3.0426203e-16
2.1683282e-16
1.5321577e-16
1.0727506e-16
7.4363604e-17
5.1540435e-17
3.5678816e-17
2.447151e-17
1.6616496e-17
1.1158657e-17
7.4964012e-18
5.0320187e-18
3.3433689e-18
2.1964952e-18
1.425453e-18
9.2598818e-19
6.0135931e-19
3.8631394e-19
2.4523853e-19
1.5381626e-19
9.6772213e-20
6.0980357e-20
3.8042827e-20
2.3472526e-20
1.4328735e-20
8.796289e-21
5.4167563e-21
3.3004751e-21
1.9865299e-21
1.1800439e-21
7.0463073e-22
4.2188904e-22
2.4932687e-22
1.4698958e-22
0.95100224
0.8854091
0.82759814
0.7585209
0.68097286
0.60047444
0.52226159
0.4497316
0.3844807
0.32699388
0.27667255
0.23214212
0.19293169
0.15867123
0.1289848
0.10348127
0.081746354
0.063346366
0.047881641
0.035089691
0.024806064
0.016857085
0.011033091
0.0069212423
0.00412304
0.0023301708
0.0012460916
0.00064860785
0.00033024764
0.00016075369
7.4533037e-05
3.2671818e-05
1.4200936e-05
6.1622119e-06
2.5625265e-06
1.0142416e-06
3.7755662e-07
1.4126455e-07
5.367633e-08
1.9544338e-08
6.7573213e-09
2.1822613e-09
7.1650308e-10
2.4286824e-10
7.8835483e-11
2.4225179e-11
6.8964336e-12
2.0130063e-12
6.1528621e-13
1.8218258e-13
5.9442743e-14
3.3962594e-14
2.6382322e-14
2.040504e-14
1.5666579e-14
1.195945e-14
9.0636751e-15
6.8524617e-15
5.1650307e-15
3.864202e-15
2.8682474e-15
2.1110852e-15
1.5513001e-15
1.1372297e-15
8.2707548e-16
5.9642307e-16
4.2618023e-16
3.0426211e-16
2.168326e-16
1.5321534e-16
1.0727445e-16
7.436287e-17
5.1539563e-17
3.5677833e-17
2.4470469e-17
1.6615432e-17
1.1157615e-17
7.4953885e-18
5.031051e-18
3.3424807e-18
2.1957041e-18
1.424781e-18
9.2542478e-19
6.0089415e-19
3.8594518e-19
2.4495623e-19
1.5361307e-19
9.6629335e-20
6.0881328e-20
3.7977017e-20
2.3430517e-20
1.4303798e-20
8.7818494e-21
5.4084256e-21
3.2958517e-21
1.9840699e-21
1.1788409e-21
7.0405967e-22
4.2161739e-22
2.4921035e-22
1.4698958e-22
0.95100224
0.88476603
0.82924324
0.76076409
0.68422832
0.60499801
0.52824665
0.45706613
0.39276026
0.33565174
0.28532284
0.24049729
0.20072241
0.16567899
0.13504503
0.1084847
0.08563904
0.066134377
0.049676436
0.036118741
0.025334315
0.017099105
0.011133795
0.0069609352
0.0041378622
0.0023353073
0.00124765
0.00064904094
0.00033036738
0.00016078563
7.4541028e-05
3.2673642e-05
1.4201354e-05
6.1623217e-06
2.5625615e-06
1.0142541e-06
3.7756158e-07
1.4126632e-07
5.367696e-08
1.9544588e-08
6.7574173e-09
2.1822976e-09
7.1651466e-10
2.4287186e-10
7.883676e-11
2.4225615e-11
6.8965789e-12
2.013047e-12
6.1529747e-13
1.821862e-13
5.9443878e-14
3.3962803e-14
2.638234e-14
2.0405055e-14
1.5666591e-14
1.195946e-14
9.0636832e-15
6.8524679e-15
5.1650353e-15
3.8642056e-15
2.8682504e-15
2.1110877e-15
1.551302e-15
1.1372313e-15
8.2707687e-16
5.9642434e-16
4.2618149e-16
3.0426337e-16
2.168339e-16
1.5321673e-16
1.0727593e-16
7.4364439e-17
5.1541224e-17
3.5679573e-17
2.4472244e-17
1.6617197e-17
1.1159313e-17
7.4970046e-18
5.0325667e-18
3.3438521e-18
2.1969062e-18
1.4257866e-18
9.262542e-19
6.0156997e-19
3.8647595e-19
2.4535859e-19
1.5390194e-19
9.6833454e-20
6.1024442e-20
3.8073803e-20
2.3493503e-20
1.4342184e-20
8.8046468e-21
5.4218356e-21
3.3034335e-21
1.9881665e-21
1.1808817e-21
7.050363e-22
4.2208083e-22
2.4942347e-22
1.4698958e-22
0.95100224
0.88650111
0.83531236
0.76944076
0.69592222
0.61957896
0.54532067
0.47587682
0.41232137
0.35493217
0.30357635
0.25727599
0.21568215
0.1786003
0.14581727
0.11709468
0.092159625
0.070722839
0.052616898
0.037821099
0.026227463
0.017519757
0.011314697
0.0070348523
0.0041662579
0.0023453418
0.0012507344
0.00064990526
0.00033060711
0.00016084914
7.4556568e-05
3.2676976e-05
1.4202034e-05
6.1624728e-06
2.5625992e-06
1.0142648e-06
3.7756512e-07
1.412675e-07
5.3677365e-08
1.9544747e-08
6.7574779e-09
2.1823205e-09
7.1652197e-10
2.4287414e-10
7.8837565e-11
2.4225889e-11
6.8966704e-12
2.0130727e-12
6.1530456e-13
1.8218848e-13
5.9444594e-14
3.3962935e-14
2.6382352e-14
2.0405064e-14
1.5666599e-14
1.1959466e-14
9.0636883e-15
6.8524718e-15
5.1650383e-15
3.8642081e-15
2.8682524e-15
2.1110896e-15
1.5513037e-15
1.1372328e-15
8.270784e-16
5.9642596e-16
4.2618328e-16
3.0426537e-16
2.1683617e-16
1.5321927e-16
1.0727874e-16
7.4367479e-17
5.1544504e-17
3.5683057e-17
2.4475823e-17
1.6620775e-17
1.1162767e-17
7.5003083e-18
5.0356773e-18
3.3466761e-18
2.1993912e-18
1.4278738e-18
9.2798247e-19
6.0298251e-19
3.875881e-19
2.4620399e-19
1.5450958e-19
9.7262326e-20
6.1324248e-20
3.8275736e-20
2.3624346e-20
1.4421485e-20
8.8514721e-21
5.4492529e-21
3.318873e-21
1.996482e-21
1.1850094e-21
7.0700754e-22
4.2301617e-22
2.4984795e-22
1.4698958e-22
0.95100224
0.88987246
0.84419463
0.78224708
0.71303466
0.64059049
0.56944932
0.50198457
0.43910613
0.38112983
0.32819449
0.27976484
0.23563215
0.19576159
0.16007572
0.12845597
0.10073369
0.076727565
0.056442368
0.040024377
0.027380765
0.018062836
0.011548524
0.0071308139
0.0042033088
0.0023584854
0.0012547884
0.00065104309
0.00033092278
0.00016093267
7.4576907e-05
3.2681274e-05
1.4202882e-05
6.1626496e-06
2.5626383e-06
1.0142741e-06
3.7756769e-07
1.4126827e-07
5.3677619e-08
1.9544845e-08
6.7575149e-09
2.1823345e-09
7.165264e-10
2.4287552e-10
7.8838054e-11
2.4226055e-11
6.896726e-12
2.0130882e-12
6.1530887e-13
1.8218987e-13
5.9445028e-14
3.3963014e-14
2.6382359e-14
2.040507e-14
1.5666603e-14
1.1959469e-14
9.0636914e-15
6.8524743e-15
5.1650402e-15
3.8642097e-15
2.8682539e-15
2.111091e-15
1.5513051e-15
1.1372343e-15
8.2707999e-16
5.9642777e-16
4.2618538e-16
3.0426783e-16
2.1683903e-16
1.5322253e-16
1.0728236e-16
7.4371432e-17
5.1548791e-17
3.5687624e-17
2.4480524e-17
1.6625481e-17
1.1167318e-17
7.504666e-18
5.0397839e-18
3.3504086e-18
2.2026802e-18
1.4306415e-18
9.3027714e-19
6.0485966e-19
3.8906777e-19
2.4733028e-19
1.553201e-19
9.7834298e-20
6.1723746e-20
3.8544607e-20
2.3798427e-20
1.4526904e-20
8.9136103e-21
5.4855737e-21
3.3393032e-21
2.0074759e-21
1.1904627e-21
7.0960844e-22
4.2424911e-22
2.50406e-22
1.4698958e-22
0.95100224
0.894286
0.85460665
0.7973745
0.73324478
0.66533347
0.59773782
0.53250347
0.47042034
0.41187018
0.35722053
0.30641282
0.25940992
0.21634695
0.17729199
0.14225862
0.11119495
0.084053463
0.061081833
0.042669345
0.028750704
0.01870189
0.011821058
0.0072420004
0.0042461607
0.0023736797
0.0012594814
0.00065235991
0.00033128774
0.00016102925
7.4600395e-05
3.2686218e-05
1.4203842e-05
6.1628439e-06
2.5626785e-06
1.0142826e-06
3.7756965e-07
1.4126878e-07
5.3677777e-08
1.9544903e-08
6.7575366e-09
2.1823426e-09
7.1652899e-10
2.4287633e-10
7.8838339e-11
2.4226152e-11
6.8967584e-12
2.0130973e-12
6.1531138e-13
1.8219068e-13
5.9445282e-14
3.3963061e-14
2.6382364e-14
2.0405073e-14
1.5666606e-14
1.1959472e-14
9.0636933e-15
6.8524758e-15
5.1650415e-15
3.8642109e-15
2.868255e-15
2.1110921e-15
1.5513063e-15
1.1372356e-15
8.2708161e-16
5.9642969e-16
4.2618768e-16
3.0427057e-16
2.1684225e-16
1.5322622e-16
1.0728649e-16
7.4375946e-17
5.1553696e-17
3.5692854e-17
2.4485913e-17
1.6630881e-17
1.1172547e-17
7.5096764e-18
5.0445064e-18
3.3547044e-18
2.2064695e-18
1.4338362e-18
9.3292784e-19
6.0702883e-19
3.9077951e-19
2.4863504e-19
1.5626073e-19
9.8498185e-20
6.2187216e-20
3.8856576e-20
2.400047e-20
1.4649345e-20
8.9857134e-21
5.5276602e-21
3.3629656e-21
2.0202055e-21
1.1967787e-21
7.1261639e-22
4.2567262e-22
2.5105037e-22
1.4698958e-22
0.95100224
0.89928764
0.86555895
0.81344001
0.75479148
0.69179813
0.6280799
0.5653841
0.50440276
0.44556261
0.38940843
0.33629324
0.28638595
0.23998361
0.19729638
0.15847578
0.12359572
0.092768367
0.066577188
0.045767189
0.03033317
0.019430428
0.012127191
0.0073654252
0.0042934683
0.0023904109
0.0012646554
0.00065380993
0.00033168879
0.0001611355
7.4626256e-05
3.2691671e-05
1.4204894e-05
6.1630529e-06
2.5627203e-06
1.0142907e-06
3.7757126e-07
1.4126914e-07
5.3677875e-08
1.9544937e-08
6.757549e-09
2.1823472e-09
7.1653044e-10
2.4287678e-10
7.8838498e-11
2.4226207e-11
6.8967766e-12
2.0131024e-12
6.1531279e-13
1.8219113e-13
5.9445424e-14
3.3963087e-14
2.6382366e-14
2.0405075e-14
1.5666608e-14
1.1959473e-14
9.0636944e-15
6.8524768e-15
5.1650423e-15
3.8642117e-15
2.8682558e-15
2.1110931e-15
1.5513074e-15
1.137237e-15
8.2708326e-16
5.9643168e-16
4.2619009e-16
3.0427348e-16
2.168457e-16
1.5323019e-16
1.0729094e-16
7.4380821e-17
5.1558998e-17
3.5698509e-17
2.4491744e-17
1.6636728e-17
1.117822e-17
7.5151122e-18
5.0496277e-18
3.3593668e-18
2.2105865e-18
1.4373152e-18
9.3581602e-19
6.0939204e-19
3.9264674e-19
2.5006061e-19
1.5729124e-19
9.9225766e-20
6.2694878e-20
3.9198568e-20
2.4222193e-20
1.4784002e-20
9.0649643e-21
5.5738442e-21
3.3889312e-21
2.034176e-21
1.2037195e-21
7.1591626e-22
4.2723026e-22
2.5175664e-22
1.4698958e-22
0.95100224
0.90456221
0.87629765
0.82941034
0.77635112
0.71847937
0.65890524
0.59910088
0.53966792
0.48103714
0.42385513
0.36876241
0.3161585
0.26647971
0.22006172
0.17719288
0.13808001
0.10301772
0.073032333
0.049371884
0.032149286
0.020255434
0.012468271
0.0075008996
0.0043450185
0.0024085841
0.0012702895
0.00065538679
0.00033212364
0.00016125097
7.4654441e-05
3.2697655e-05
1.4206044e-05
6.1632789e-06
2.5627646e-06
1.014299e-06
3.7757272e-07
1.4126941e-07
5.3677939e-08
1.9544957e-08
6.7575558e-09
2.1823496e-09
7.1653121e-10
2.4287702e-10
7.8838583e-11
2.4226236e-11
6.8967862e-12
2.0131051e-12
6.1531353e-13
1.8219137e-13
5.9445499e-14
3.3963101e-14
2.6382367e-14
2.0405076e-14
1.5666609e-14
1.1959474e-14
9.0636951e-15
6.8524774e-15
5.1650429e-15
3.8642123e-15
2.8682565e-15
2.1110939e-15
1.5513085e-15
1.1372383e-15
8.2708493e-16
5.9643374e-16
4.2619259e-16
3.0427653e-16
2.1684932e-16
1.5323436e-16
1.0729562e-16
7.4385971e-17
5.1564602e-17
3.570448e-17
2.4497906e-17
1.6642913e-17
1.1184237e-17
7.5208781e-18
5.0550539e-18
3.3643116e-18
2.214958e-18
1.4410217e-18
9.3889414e-19
6.1190869e-19
3.9463826e-19
2.5158409e-19
1.5839701e-19
1.0000683e-19
6.3239341e-20
3.9565871e-20
2.446075e-20
1.4929447e-20
9.150528e-21
5.6235951e-21
3.4169126e-21
2.0492397e-21
1.2112243e-21
7.1947713e-22
4.2890486e-22
2.5251791e-22
1.4698958e-22
0.95100224
0.90997165
0.88619384
0.8445112
0.79692236
0.74423573
0.68900703
0.63245412
0.57508829
0.51730446
0.45977238
0.4032485
0.34836143
0.29565434
0.24555806
0.19848702
0.15478859
0.11495876
0.080575277
0.053561335
0.034236262
0.021193184
0.012850453
0.0076503944
0.0044015017
0.0024284506
0.0012764821
0.00065711913
0.00033259971
0.00016137789
7.4685575e-05
3.2704344e-05
1.4207328e-05
6.1635291e-06
2.5628134e-06
1.0143079e-06
3.7757419e-07
1.4126965e-07
5.3677985e-08
1.9544969e-08
6.7575593e-09
2.1823508e-09
7.1653158e-10
2.4287713e-10
7.8838623e-11
2.4226249e-11
6.8967907e-12
2.0131063e-12
6.1531389e-13
1.8219148e-13
5.9445534e-14
3.3963108e-14
2.6382368e-14
2.0405076e-14
1.5666609e-14
1.1959474e-14
9.0636955e-15
6.8524778e-15
5.1650433e-15
3.8642128e-15
2.8682571e-15
2.1110947e-15
1.5513095e-15
1.1372397e-15
8.2708665e-16
5.9643586e-16
4.2619521e-16
3.0427972e-16
2.1685311e-16
1.5323874e-16
1.0730054e-16
7.4391401e-17
5.1570511e-17
3.5710766e-17
2.45044e-17
1.6649437e-17
1.1190611e-17
7.5269852e-18
5.06079e-18
3.3695455e-18
2.2195921e-18
1.4449704e-18
9.4217379e-19
6.1458554e-19
3.9676066e-19
2.5321163e-19
1.5958531e-19
1.0084657e-19
6.3823661e-20
3.9960844e-20
2.4717903e-20
1.5087152e-20
9.2432633e-21
5.6773378e-21
3.4471607e-21
2.0655402e-21
1.2193832e-21
7.2333963e-22
4.3071222e-22
2.5334169e-22
1.4698958e-22
0.95100224
0.91541284
0.89485083
0.85820306
0.81576308
0.76817882
0.71742532
0.66445013
0.60967396
0.55343244
0.49634759
0.43912133
0.38253925
0.32721843
0.27364319
0.22232933
0.17377536
0.12869943
0.089323581
0.058422162
0.036641268
0.02226646
0.013283689
0.0078176867
0.0044643941
0.0024505767
0.0012834464
0.00065907034
0.00033313415
0.00016152125
7.4720995e-05
3.2712077e-05
1.4208815e-05
6.1638164e-06
2.5628694e-06
1.014318e-06
3.7757581e-07
1.4126988e-07
5.3678022e-08
1.9544975e-08
6.7575608e-09
2.1823512e-09
7.1653169e-10
2.4287717e-10
7.8838635e-11
2.4226253e-11
6.8967921e-12
2.0131067e-12
6.1531399e-13
1.8219152e-13
5.9445545e-14
3.396311e-14
2.6382368e-14
2.0405076e-14
1.5666609e-14
1.1959474e-14
9.0636957e-15
6.852478e-15
5.1650436e-15
3.8642132e-15
2.8682577e-15
2.1110955e-15
1.5513106e-15
1.1372411e-15
8.2708843e-16
5.9643809e-16
4.2619797e-16
3.0428309e-16
2.1685712e-16
1.5324337e-16
1.0730576e-16
7.4397195e-17
5.1576815e-17
3.5717453e-17
2.4511319e-17
1.66564e-17
1.1197455e-17
7.5335402e-18
5.0669284e-18
3.3751562e-18
2.2245701e-18
1.4492417e-18
9.4572152e-19
6.1747303e-19
3.9905559e-19
2.5497671e-19
1.6088448e-19
1.0176499e-19
6.4460798e-20
4.0392542e-20
2.4999786e-20
1.5261393e-20
9.3456515e-21
5.7363922e-21
3.4804288e-21
2.0834927e-21
1.2284295e-21
7.2761227e-22
4.3269888e-22
2.542485e-22
1.4698958e-22
0.95100224
0.92064159
0.90240062
0.87036032
0.83264998
0.78990645
0.74358441
0.69437716
0.64260168
0.58852511
0.53267291
0.4756106
0.41806051
0.36068125
0.30396697
0.24849358
0.19492347
0.14423314
0.099346579
0.064034072
0.039416852
0.023502547
0.013781139
0.0080081901
0.0045359124
0.0024758403
0.0012915161
0.00066134151
0.00033375477
0.00016168909
7.4762845e-05
3.2721391e-05
1.4210609e-05
6.1641603e-06
2.5629368e-06
1.0143301e-06
3.7757774e-07
1.4127014e-07
5.3678054e-08
1.9544979e-08
6.7575607e-09
2.182351e-09
7.165316e-10
2.4287713e-10
7.8838623e-11
2.4226249e-11
6.8967907e-12
2.0131063e-12
6.1531389e-13
1.8219148e-13
5.9445534e-14
3.3963108e-14
2.6382368e-14
2.0405076e-14
1.5666609e-14
1.1959474e-14
9.0636957e-15
6.8524782e-15
5.1650439e-15
3.8642136e-15
2.8682583e-15
2.1110963e-15
1.5513117e-15
1.1372426e-15
8.2709033e-16
5.9644047e-16
4.2620095e-16
3.0428673e-16
2.1686143e-16
1.5324837e-16
1.073114e-16
7.4403511e-17
5.1583684e-17
3.5724713e-17
2.4518844e-17
1.6663986e-17
1.1204972e-17
7.5407343e-18
5.0736362e-18
3.3812993e-18
2.230032e-18
1.4539684e-18
9.4964549e-19
6.2065373e-19
4.0159029e-19
2.5693267e-19
1.6233865e-19
1.0279382e-19
6.5172119e-20
4.087621e-20
2.5316983e-20
1.5459427e-20
9.4618851e-21
5.8030038e-21
3.5179854e-21
2.1037915e-21
1.2387459e-21
7.3247418e-22
4.349431e-22
2.5527152e-22
1.4698958e-22
0.95100224
0.92548386
0.90899053
0.88100397
0.84755725
0.80928503
0.76722353
0.72184173
0.67334112
0.62190183
0.56791585
0.51180165
0.45403985
0.39524267
0.33585712
0.27646147
0.2178568
0.16136661
0.11062103
0.070450904
0.042616147
0.024926912
0.014347905
0.0082209457
0.0046146512
0.0025034681
0.0013003558
0.0006638232
0.00033442943
0.0001618719
7.4808578e-05
3.2731656e-05
1.4212587e-05
6.1645377e-06
2.5630107e-06
1.0143433e-06
3.7757979e-07
1.4127039e-07
5.3678077e-08
1.9544977e-08
6.7575586e-09
2.18235e-09
7.1653125e-10
2.4287702e-10
7.8838583e-11
2.4226236e-11
6.8967862e-12
2.0131051e-12
6.1531354e-13
1.8219137e-13
5.9445499e-14
3.3963101e-14
2.6382367e-14
2.0405076e-14
1.5666609e-14
1.1959474e-14
9.0636956e-15
6.8524782e-15
5.1650441e-15
3.864214e-15
2.8682588e-15
2.1110971e-15
1.5513128e-15
1.1372441e-15
8.2709229e-16
5.9644293e-16
4.2620405e-16
3.0429052e-16
2.1686591e-16
1.5325357e-16
1.0731728e-16
7.441012e-17
5.159087e-17
3.5732292e-17
2.4526708e-17
1.6671925e-17
1.1212872e-17
7.5482933e-18
5.0806685e-18
3.3877473e-18
2.2357733e-18
1.4589617e-18
9.537915e-19
6.2400804e-19
4.0426809e-19
2.5900382e-19
1.6388773e-19
1.0389111e-19
6.592965e-20
4.1392314e-20
2.5656329e-20
1.5672597e-20
9.5871076e-21
5.8745525e-21
3.558339e-21
2.1256217e-21
1.2498913e-21
7.3771939e-22
4.3735196e-22
2.5636743e-22
1.4698958e-22
0.95100224
0.92982998
0.91474678
0.89023788
0.86057445
0.82634881
0.78828048
0.74665261
0.70154938
0.65304695
0.60138063
0.54682155
0.48950776
0.42988731
0.36829729
0.30526994
0.24174425
0.1794539
0.1227338
0.077447788
0.046117549
0.026479879
0.014961988
0.0084482669
0.0046977003
0.0025324025
0.0013095999
0.00066641149
0.00033513016
0.00016206178
7.4856141e-05
3.2742375e-05
1.421465e-05
6.1649298e-06
2.5630872e-06
1.0143568e-06
3.7758181e-07
1.4127059e-07
5.367808e-08
1.9544968e-08
6.7575532e-09
2.1823477e-09
7.1653049e-10
2.4287678e-10
7.8838499e-11
2.4226207e-11
6.8967766e-12
2.0131024e-12
6.1531279e-13
1.8219113e-13
5.9445424e-14
3.3963087e-14
2.6382366e-14
2.0405075e-14
1.5666608e-14
1.1959473e-14
9.0636952e-15
6.852478e-15
5.1650441e-15
3.8642142e-15
2.8682593e-15
2.1110979e-15
1.5513139e-15
1.1372455e-15
8.2709422e-16
5.9644539e-16
4.2620716e-16
3.0429434e-16
2.1687044e-16
1.5325883e-16
1.0732323e-16
7.4416827e-17
5.1598163e-17
3.5739976e-17
2.4534687e-17
1.6679984e-17
1.1220915e-17
7.5559878e-18
5.0878187e-18
3.394309e-18
2.241622e-18
1.4640641e-18
9.5803017e-19
6.2743478e-19
4.0700726e-19
2.6112617e-19
1.6548129e-19
1.0502153e-19
6.6709715e-20
4.1924408e-20
2.6006797e-20
1.5893554e-20
9.717034e-21
5.9486512e-21
3.60011e-21
2.1482205e-21
1.2614529e-21
7.4315565e-22
4.3983987e-22
2.5749519e-22
1.4698958e-22
0.95100224
0.93362409
0.91976072
0.89819095
0.87183483
0.84120513
0.8067877
0.76871911
0.72697417
0.6815164
0.63241493
0.57977728
0.52340927
0.46344317
0.40006016
0.33371713
0.26548783
0.19756989
0.13501659
0.084645651
0.049751044
0.028093595
0.015598512
0.0086816188
0.0047819912
0.0025615704
0.0013188933
0.00066900688
0.00033583037
0.00016225136
7.4903636e-05
3.2753092e-05
1.4216709e-05
6.1653191e-06
2.5631624e-06
1.0143697e-06
3.7758355e-07
1.412707e-07
5.3678047e-08
1.9544943e-08
6.7575421e-09
2.1823433e-09
7.1652906e-10
2.4287633e-10
7.883834e-11
2.4226153e-11
6.8967585e-12
2.0130973e-12
6.1531139e-13
1.8219068e-13
5.9445282e-14
3.3963061e-14
2.6382364e-14
2.0405073e-14
1.5666607e-14
1.1959472e-14
9.0636944e-15
6.8524775e-15
5.1650438e-15
3.8642142e-15
2.8682595e-15
2.1110984e-15
1.5513148e-15
1.1372469e-15
8.2709607e-16
5.9644776e-16
4.2621019e-16
3.0429808e-16
2.1687487e-16
1.5326399e-16
1.0732908e-16
7.4423428e-17
5.1605344e-17
3.5747538e-17
2.4542544e-17
1.6687925e-17
1.1228852e-17
7.5635821e-18
5.0948722e-18
3.4007859e-18
2.2473998e-18
1.4691151e-18
9.6222894e-19
6.3082897e-19
4.0972317e-19
2.6323352e-19
1.6706782e-19
1.0614867e-19
6.748762e-20
4.2455423e-20
2.6356986e-20
1.6114815e-20
9.8472638e-21
6.0228275e-21
3.6418843e-21
2.1708125e-21
1.2730194e-21
7.4859088e-22
4.4232093e-22
2.5861449e-22
1.4698958e-22
0.95100224
0.93684968
0.92408212
0.90496539
0.88144586
0.85393957
0.82275913
0.78792805
0.74932532
0.70680297
0.66026758
0.6096525
0.55447936
0.49445665
0.42958423
0.36024406
0.28765645
0.21452485
0.14661452
0.09154486
0.053280279
0.029671176
0.016222175
0.0089091425
0.0048634753
0.0025896118
0.0013278043
0.00067149053
0.00033649855
0.00016243205
7.4948876e-05
3.2763296e-05
1.4218662e-05
6.1656851e-06
2.5632316e-06
1.014381e-06
3.7758474e-07
1.4127062e-07
5.3677951e-08
1.9544894e-08
6.7575216e-09
2.1823353e-09
7.1652648e-10
2.4287553e-10
7.8838055e-11
2.4226055e-11
6.896726e-12
2.0130882e-12
6.1530887e-13
1.8218987e-13
5.9445029e-14
3.3963015e-14
2.638236e-14
2.040507e-14
1.5666604e-14
1.195947e-14
9.0636928e-15
6.8524763e-15
5.1650431e-15
3.8642138e-15
2.8682595e-15
2.1110987e-15
1.5513156e-15
1.1372481e-15
8.2709772e-16
5.9644993e-16
4.26213e-16
3.0430157e-16
2.1687903e-16
1.5326885e-16
1.0733459e-16
7.4429661e-17
5.1612129e-17
3.5754684e-17
2.4549972e-17
1.6695436e-17
1.1236367e-17
7.5707754e-18
5.1015526e-18
3.4069236e-18
2.2528791e-18
1.473912e-18
9.6621965e-19
6.3405596e-19
4.1230745e-19
2.6524123e-19
1.6858221e-19
1.0722613e-19
6.8231512e-20
4.2963424e-20
2.6692273e-20
1.6326911e-20
9.9721899e-21
6.0939063e-21
3.6818628e-21
2.192418e-21
1.2840805e-21
7.5378639e-22
4.44688e-22
2.5967615e-22
1.4698958e-22
0.95100224
0.93950979
0.92770574
0.91058228
0.8894089
0.86450487
0.83604957
0.80397776
0.76808727
0.72812898
0.68386402
0.63506021
0.58101772
0.52097959
0.45478239
0.38277461
0.30635873
0.2287648
0.15640864
0.097470624
0.056370939
0.031071792
0.01678097
0.009113314
0.004936282
0.0026145899
0.0013357308
0.0006736978
0.00033709118
0.0001625921
7.4988894e-05
3.2772298e-05
1.4220372e-05
6.1660001e-06
2.5632887e-06
1.014389e-06
3.7758494e-07
1.4127023e-07
5.367775e-08
1.9544804e-08
6.7574858e-09
2.1823215e-09
7.1652207e-10
2.4287415e-10
7.8837566e-11
2.4225889e-11
6.8966705e-12
2.0130727e-12
6.1530457e-13
1.8218848e-13
5.9444595e-14
3.3962935e-14
2.6382352e-14
2.0405064e-14
1.5666599e-14
1.1959467e-14
9.0636898e-15
6.8524742e-15
5.1650417e-15
3.8642128e-15
2.8682589e-15
2.1110986e-15
1.5513159e-15
1.1372489e-15
8.27099e-16
5.9645171e-16
4.2621537e-16
3.0430457e-16
2.1688264e-16
1.5327309e-16
1.0733942e-16
7.4435142e-17
5.1618104e-17
3.5760982e-17
2.4556523e-17
1.6702065e-17
1.1243006e-17
7.5771319e-18
5.1074573e-18
3.4123518e-18
2.2577288e-18
1.4781628e-18
9.6975922e-19
6.3691972e-19
4.1460257e-19
2.6702626e-19
1.6993054e-19
1.0818668e-19
6.8894917e-20
4.3416478e-20
2.6991407e-20
1.6516203e-20
1.0083716e-20
6.1572878e-21
3.7174556e-21
2.2116341e-21
1.2939132e-21
7.5840357e-22
4.4678861e-22
2.6061141e-22
1.4698958e-22
0.95100224
0.94159728
0.93053732
0.91490749
0.89550767
0.87256725
0.84615555
0.81613311
0.78223117
0.74412006
0.70144969
0.65385838
0.60051438
0.54022662
0.47275141
0.39849254
0.31908949
0.23827783
0.16296638
0.10154635
0.058573659
0.032100011
0.01720086
0.0092686793
0.0049918295
0.0026336688
0.0013417929
0.00067538771
0.00033754446
0.0001627143
7.501936e-05
3.27791e-05
1.4221641e-05
6.1662238e-06
2.5633243e-06
1.0143915e-06
3.7758351e-07
1.4126934e-07
5.3677386e-08
1.9544652e-08
6.7574259e-09
2.1822987e-09
7.1651477e-10
2.4287187e-10
7.8836761e-11
2.4225615e-11
6.8965789e-12
2.013047e-12
6.1529747e-13
1.821862e-13
5.9443879e-14
3.3962803e-14
2.6382341e-14
2.0405055e-14
1.5666592e-14
1.1959461e-14
9.0636849e-15
6.8524704e-15
5.165039e-15
3.8642109e-15
2.8682576e-15
2.1110976e-15
1.5513156e-15
1.1372491e-15
8.2709967e-16
5.9645283e-16
4.2621699e-16
3.0430673e-16
2.1688531e-16
1.5327627e-16
1.0734307e-16
7.4439291e-17
5.1622644e-17
3.5765778e-17
2.4561519e-17
1.6707125e-17
1.1248079e-17
7.5819944e-18
5.1119776e-18
3.4165106e-18
2.2614484e-18
1.4814275e-18
9.7248091e-19
6.3912365e-19
4.1637032e-19
2.6840267e-19
1.709714e-19
1.0892897e-19
6.940761e-20
4.3766425e-20
2.7222399e-20
1.6662276e-20
1.0169734e-20
6.2060899e-21
3.7448008e-21
2.2263748e-21
1.3014481e-21
7.6194133e-22
4.4839658e-22
2.6131939e-22
1.4698958e-22
0.95100224
0.94304535
0.93232313
0.91753427
0.8991362
0.8772722
0.85191201
0.8228493
0.78976811
0.75229745
0.71003826
0.6625754
0.60908134
0.54806499
0.47935694
0.40354183
0.32254283
0.24049873
0.16450688
0.10268499
0.05931868
0.032499993
0.017381836
0.0093398078
0.0050179131
0.0026427624
0.0013447127
0.00067620783
0.00033776452
0.00016277334
7.5033902e-05
3.2782239e-05
1.4222178e-05
6.1662975e-06
2.5633252e-06
1.0143854e-06
3.7757958e-07
1.4126771e-07
5.3676776e-08
1.9544405e-08
6.7573304e-09
2.1822624e-09
7.165032e-10
2.4286826e-10
7.8835484e-11
2.4225179e-11
6.8964336e-12
2.0130063e-12
6.1528621e-13
1.8218258e-13
5.9442744e-14
3.3962594e-14
2.6382322e-14
2.0405041e-14
1.566658e-14
1.1959451e-14
9.0636769e-15
6.8524644e-15
5.1650346e-15
3.8642074e-15
2.868255e-15
2.1110956e-15
1.5513142e-15
1.1372484e-15
8.2709935e-16
5.964529e-16
4.262174e-16
3.0430751e-16
2.1688643e-16
1.5327768e-16
1.0734474e-16
7.4441242e-17
5.1624813e-17
3.5768092e-17
2.4563943e-17
1.6709591e-17
1.125056e-17
7.5843794e-18
5.114201e-18
3.4185614e-18
2.2632882e-18
1.4830472e-18
9.7383551e-19
6.4022315e-19
4.1725373e-19
2.6909201e-19
1.7149347e-19
1.0930175e-19
6.9664843e-20
4.3941552e-20
2.7337719e-20
1.6734914e-20
1.0212369e-20
6.2301619e-21
3.7582107e-21
2.2335725e-21
1.3051158e-21
7.6366368e-22
4.4917884e-22
2.6165248e-22
1.4698958e-22
0.95100224
0.94364354
0.93252563
0.917595
0.8990309
0.87688402
0.8510293
0.82120077
0.78707536
0.74832146
0.70460413
0.65558824
0.60065497
0.53832532
0.46870074
0.39266335
0.31240341
0.23221817
0.15888161
0.099596557
0.057922397
0.031955557
0.017196032
0.0092797364
0.0049978459
0.0026361695
0.0013426839
0.00067565549
0.00033761654
0.00016273271
7.5023322e-05
3.2779605e-05
1.4221564e-05
6.1661369e-06
2.5632724e-06
1.0143662e-06
3.7757195e-07
1.4126499e-07
5.3675813e-08
1.9544022e-08
6.7571836e-09
2.1822069e-09
7.1648549e-10
2.4286273e-10
7.8833531e-11
2.4224514e-11
6.8962115e-12
2.0129441e-12
6.15269e-13
1.8217704e-13
5.9441008e-14
3.3962275e-14
2.6382293e-14
2.0405019e-14
1.5666561e-14
1.1959437e-14
9.0636647e-15
6.852455e-15
5.1650276e-15
3.8642019e-15
2.8682506e-15
2.1110919e-15
1.5513114e-15
1.1372462e-15
8.2709754e-16
5.9645132e-16
4.2621591e-16
3.0430614e-16
2.1688511e-16
1.5327633e-16
1.0734334e-16
7.4439737e-17
5.162325e-17
3.5766499e-17
2.4562316e-17
1.6707968e-17
1.124895e-17
7.5828547e-18
5.1127984e-18
3.4172818e-18
2.2621554e-18
1.4820629e-18
9.7302372e-19
6.3957133e-19
4.1673383e-19
2.6869001e-19
1.7119062e-19
1.0908643e-19
6.9515541e-20
4.3838615e-20
2.7269117e-20
1.6690863e-20
1.018612e-20
6.2150313e-21
3.7495735e-21
2.228853e-21
1.3026787e-21
7.6252047e-22
4.486587e-22
2.6139959e-22
1.4698958e-22
0.95100224
0.94290542
0.93013444
0.91348184
0.89287686
0.86825859
0.83942178
0.80606048
0.76794351
0.72494812
0.67700187
0.62404308
0.56598929
0.50197519
0.43254127
0.35883172
0.28315587
0.20951541
0.1435752
0.090810363
0.053604143
0.030095996
0.016488354
0.0090291752
0.0049097525
0.0026062326
0.0013332421
0.00067303806
0.00033691322
0.00016254148
7.4974766e-05