# vtk DataFile Version 3.0
Reduced x-z stratification field
ASCII
DATASET STRUCTURED_POINTS
DIMENSIONS 241 81 1
ORIGIN 0 -0.6 0
SPACING 5 0.015 1
POINT_DATA 19521
SCALARS x_H2 float 1
LOOKUP_TABLE default
2.4156453e-07
1.3118184e-07
7.1929552e-08
3.9788054e-08
2.2074426e-08
1.2284925e-08
6.8255512e-09
3.7897396e-09
2.0946221e-09
1.1544512e-09
6.3252699e-10
3.4534965e-10
1.8745713e-10
1.0146698e-10
5.4682358e-11
2.944765e-11
1.5834906e-11
8.5385978e-12
4.6179061e-12
2.5170702e-12
1.3843452e-12
7.7233287e-13
4.379724e-13
2.5380615e-13
1.5064288e-13
9.1988028e-14
5.7872101e-14
3.7603338e-14
2.5226474e-14
1.7471814e-14
1.246745e-14
9.1486059e-15
6.883824e-15
5.2975513e-15
4.1582113e-15
3.3207343e-15
2.6922902e-15
2.2112726e-15
1.8371038e-15
1.5411008e-15
1.3040834e-15
1.111512e-15
9.5369572e-16
8.2267947e-16
7.1329473e-16
6.2088369e-16
5.4257247e-16
4.7546523e-16
4.1791571e-16
3.680254e-16
3.248343e-16
2.870381e-16
2.5407423e-16
2.2500906e-16
1.9951656e-16
1.7690424e-16
1.5698956e-16
1.3924308e-16
1.235702e-16
1.0955578e-16
9.7159084e-17
8.6047897e-17
7.6214003e-17
6.738725e-17
5.9578384e-17
5.25651e-17
4.636841e-17
4.0803883e-17
3.5897233e-17
3.1494705e-17
2.7623204e-17
2.41543e-17
2.1113946e-17
1.839493e-17
1.602103e-17
1.3902998e-17
1.2061824e-17
1.0423565e-17
9.0062206e-18
7.7489139e-18
6.6667146e-18
5.7098848e-18
4.8907806e-18
4.1691207e-18
3.5548488e-18
3.0156574e-18
2.5594126e-18
2.1604715e-18
1.8249584e-18
1.5327431e-18
1.2885226e-18
1.0766744e-18
9.0074951e-19
7.4876619e-19
6.2337208e-19
5.1548794e-19
4.2706166e-19
3.5129695e-19
2.896084e-19
2.3697098e-19
1.9439902e-19
1.5822287e-19
1.2916085e-19
1.0456616e-19
8.494129e-20
6.8400715e-20
5.5291726e-20
4.4287604e-20
3.5625532e-20
2.8383399e-20
2.272129e-20
1.8006098e-20
1.4344616e-20
1.130741e-20
8.9649043e-21
7.0293136e-21
5.5465521e-21
4.3260426e-21
3.397382e-21
2.6358531e-21
2.0603215e-21
1.5901233e-21
1.2371511e-21
9.4983618e-22
7.3559363e-22
5.6183212e-22
4.3312518e-22
3.2910807e-22
2.5257163e-22
1.9093319e-22
1.4587788e-22
1.0971723e-22
8.3458211e-23
6.2454164e-23
4.7300699e-23
3.5219807e-23
2.6560267e-23
1.9678907e-23
1.4777974e-23
1.0895739e-23
8.1483605e-24
5.9787663e-24
4.4530531e-24
3.251826e-24
2.4123569e-24
1.7533547e-24
1.2956544e-24
9.3736511e-25
6.9003619e-25
4.969547e-25
3.6447097e-25
2.6131679e-25
1.9095682e-25
1.3631119e-25
9.9256029e-26
7.0546117e-26
5.119002e-26
3.6227613e-26
2.6197219e-26
1.8460674e-26
1.3303285e-26
9.333755e-27
6.7022294e-27
4.6810061e-27
3.3485325e-27
2.3272533e-27
1.6578543e-27
1.1463498e-27
8.1372746e-28
5.6165536e-28
4.0100231e-28
2.8097599e-28
2.0712512e-28
1.5764432e-28
1.35863e-28
1.2092037e-28
1.1375254e-28
1.0707252e-28
1.0095553e-28
9.5051753e-29
8.9400811e-29
8.3928004e-29
7.8669809e-29
7.3601985e-29
6.8763663e-29
6.409755e-29
5.9641567e-29
5.5343583e-29
5.1240552e-29
4.7293677e-29
4.3539182e-29
3.9949405e-29
3.6558605e-29
3.334628e-29
3.034224e-29
2.7529046e-29
2.4929428e-29
2.2525478e-29
2.0331377e-29
1.8326794e-29
1.6517751e-29
1.488152e-29
1.3417952e-29
1.2103369e-29
1.093413e-29
9.8874686e-30
8.9586522e-30
8.1272805e-30
7.3891078e-30
6.7267898e-30
6.1372674e-30
5.6062724e-30
5.1320106e-30
4.7029184e-30
4.3182418e-30
3.9686237e-30
3.6540514e-30
3.3669052e-30
3.1076522e-30
2.8700293e-30
2.65479e-30
2.4567381e-30
2.2767822e-30
2.110576e-30
1.9590975e-30
1.8186878e-30
1.6903395e-30
1.5709562e-30
1.4615106e-30
1.3593718e-30
1.2654708e-30
1.1775648e-30
1.0965303e-30
1.0204506e-30
9.5014112e-31
8.8396299e-31
8.2267157e-31
7.6486963e-31
7.1125816e-31
6.6064837e-31
6.1368108e-31
4.626964e-07
2.5109859e-07
1.3758579e-07
7.6050786e-08
4.2161169e-08
2.3445345e-08
1.3015761e-08
7.2206623e-09
3.9874498e-09
2.195706e-09
1.2019088e-09
6.555879e-10
3.5549706e-10
1.922224e-10
1.0347879e-10
5.5662048e-11
2.9895382e-11
1.6100182e-11
8.6959457e-12
4.7333359e-12
2.5994878e-12
1.4480872e-12
8.1990307e-13
4.7438717e-13
2.8112191e-13
1.7139975e-13
1.0767476e-13
6.9869405e-14
4.6816036e-14
3.2390885e-14
2.3092935e-14
1.6933228e-14
1.2733779e-14
9.7948175e-15
7.6853439e-15
6.1356453e-15
4.973294e-15
4.0839614e-15
3.3923958e-15
2.8454442e-15
2.4075792e-15
2.0518867e-15
1.7604322e-15
1.5185016e-15
1.316536e-15
1.1459253e-15
1.0013566e-15
8.7747932e-16
7.71251e-16
6.7916488e-16
5.9944726e-16
5.2968947e-16
4.6885231e-16
4.1521193e-16
3.6816615e-16
3.2643655e-16
2.8968598e-16
2.5693715e-16
2.280153e-16
2.0215423e-16
1.7927865e-16
1.5877543e-16
1.4062933e-16
1.2434181e-16
1.0993264e-16
9.6991595e-17
8.555741e-17
7.5289751e-17
6.6236048e-17
5.8112578e-17
5.0968978e-17
4.4568259e-17
3.8958306e-17
3.3941287e-17
2.9561071e-17
2.5652978e-17
2.2255737e-17
1.9232909e-17
1.6617705e-17
1.4297795e-17
1.2300986e-17
1.0535502e-17
9.0241423e-18
7.6925817e-18
6.5591669e-18
5.5642863e-18
4.7224537e-18
3.9863543e-18
3.3672883e-18
2.8281125e-18
2.3774935e-18
1.9866058e-18
1.6620013e-18
1.3815722e-18
1.1502036e-18
9.5114329e-19
7.8798527e-19
6.4818949e-19
5.3436608e-19
4.3724317e-19
3.5869235e-19
2.9194263e-19
2.3831941e-19
1.9293898e-19
1.5672852e-19
1.2620898e-19
1.0202117e-19
8.1717101e-20
6.5734422e-20
5.2371712e-20
4.1924353e-20
3.3224175e-20
2.6468235e-20
2.0864159e-20
1.65419e-20
1.2970448e-20
1.023453e-20
7.9824985e-21
6.2689703e-21
4.8638197e-21
3.8018626e-21
2.9342578e-21
2.2829544e-21
1.7527961e-21
1.3574697e-21
1.0368353e-21
7.9933608e-22
6.0739234e-22
4.6615721e-22
3.5241061e-22
2.6926484e-22
2.0253082e-22
1.5406898e-22
1.1530331e-22
8.7334732e-23
6.5035579e-23
4.905092e-23
3.6347398e-23
2.7299359e-23
2.0131121e-23
1.5057903e-23
1.1050939e-23
8.232845e-24
6.0136222e-24
4.4625218e-24
3.2445375e-24
2.3984551e-24
1.7359085e-24
1.2784467e-24
9.2116654e-25
6.759484e-25
4.8491582e-25
3.5457036e-25
2.5327183e-25
1.8455283e-25
1.3126996e-25
9.5329253e-26
6.7522528e-26
4.8871066e-26
3.4470703e-26
2.4864851e-26
1.7463232e-26
1.2552949e-26
8.7768585e-27
6.2855508e-27
4.3735574e-27
3.1192769e-27
2.1594981e-27
1.5348124e-27
1.0607106e-27
7.5829022e-28
5.3201941e-28
3.9270794e-28
2.9929502e-28
2.5829309e-28
2.3019906e-28
2.1685017e-28
2.0439398e-28
1.9297788e-28
1.8193414e-28
1.7134014e-28
1.6105235e-28
1.5114217e-28
1.4156308e-28
1.3239218e-28
1.2352009e-28
1.1502226e-28
1.0680009e-28
9.8927983e-29
9.1334132e-29
8.4092293e-29
7.7152961e-29
7.0586315e-29
6.435676e-29
5.8525277e-29
5.3061428e-29
4.8011275e-29
4.3342232e-29
3.9082475e-29
3.5193555e-29
3.168686e-29
2.8518532e-29
2.5687515e-29
2.3147787e-29
2.0891422e-29
1.8874133e-29
1.7085987e-29
1.5487366e-29
1.4069448e-29
1.2798644e-29
1.1668586e-29
1.0651728e-29
9.7442688e-30
8.9239568e-30
8.1890861e-30
7.5217052e-30
6.9215989e-30
6.3741886e-30
5.8802248e-30
5.4277532e-30
5.0181039e-30
4.641379e-30
4.2992268e-30
3.9833835e-30
3.6956452e-30
3.4290655e-30
3.1854796e-30
2.9590176e-30
2.7514843e-30
2.5578988e-30
2.3799925e-30
2.2135244e-30
2.0601263e-30
1.9161778e-30
1.7831981e-30
1.6580942e-30
1.5422745e-30
1.4331048e-30
1.3318939e-30
1.2364041e-30
1.1478324e-30
8.6019034e-07
4.6631174e-07
2.5522299e-07
1.4091145e-07
7.8024506e-08
4.3334338e-08
2.4025954e-08
1.3310795e-08
7.3403212e-09
4.0361345e-09
2.2060195e-09
1.2014096e-09
6.5041381e-10
3.5109367e-10
1.8866943e-10
1.0129925e-10
5.4300913e-11
2.9184243e-11
1.5729012e-11
8.5422523e-12
4.6801917e-12
2.6007483e-12
1.4687773e-12
8.4760897e-13
5.0098362e-13
3.0467083e-13
1.9093182e-13
1.2361641e-13
8.2662586e-14
5.7092218e-14
4.0643329e-14
2.9765783e-14
2.2361547e-14
1.7186732e-14
1.3476692e-14
1.0753756e-14
8.713028e-15
7.1526494e-15
5.9399092e-15
4.9811861e-15
4.2139518e-15
3.5908873e-15
3.0804744e-15
2.6568787e-15
2.3033193e-15
2.0046934e-15
1.7516816e-15
1.5349053e-15
1.3490306e-15
1.1879143e-15
1.0484479e-15
9.2641371e-16
8.1999083e-16
7.2616169e-16
6.4387134e-16
5.7088244e-16
5.0660436e-16
4.4932708e-16
3.9874441e-16
3.5351587e-16
3.1350946e-16
2.7765261e-16
2.4591851e-16
2.1743509e-16
1.9223684e-16
1.6960623e-16
1.4961093e-16
1.3165573e-16
1.1582352e-16
1.0161811e-16
8.9126256e-17
7.7933524e-17
6.8123625e-17
5.9350604e-17
5.1691158e-17
4.4857313e-17
3.8916779e-17
3.3630968e-17
2.9057953e-17
2.5001305e-17
2.1509643e-17
1.8422487e-17
1.5779699e-17
1.3451314e-17
1.1469411e-17
9.7297515e-18
8.2577147e-18
6.9705646e-18
5.8880607e-18
4.9452539e-18
4.1572983e-18
3.4737896e-18
2.9061842e-18
2.4158243e-18
2.011252e-18
1.6631741e-18
1.3778751e-18
1.1334276e-18
9.3439542e-19
7.6456585e-19
6.2721153e-19
5.1049266e-19
4.1672684e-19
3.3737442e-19
2.7405665e-19
2.2069003e-19
1.783951e-19
1.4289131e-19
1.1494391e-19
9.1577798e-20
7.3309485e-20
5.8096296e-20
4.628281e-20
3.6483478e-20
2.8925538e-20
2.2680462e-20
1.7896405e-20
1.3958473e-20
1.0962172e-20
8.5051007e-21
6.6481416e-21
5.1310267e-21
3.9921401e-21
3.0650874e-21
2.3738049e-21
1.8131287e-21
1.3978252e-21
1.0621799e-21
8.1520586e-22
6.1629828e-22
4.7090118e-22
3.5420171e-22
2.6945454e-22
2.0166217e-22
1.527509e-22
1.1375329e-22
8.5798265e-23
6.3580745e-23
4.7756058e-23
3.5218503e-23
2.6344975e-23
1.9336004e-23
1.4406417e-23
1.052411e-23
7.8104822e-24
5.6794217e-24
4.1989694e-24
3.0395147e-24
2.2388925e-24
1.6135016e-24
1.1842223e-24
8.4973354e-25
6.2147587e-25
4.4404112e-25
3.2365398e-25
2.302816e-25
1.6728765e-25
1.1853331e-25
8.5823907e-26
6.0559468e-26
4.3702316e-26
3.0707255e-26
2.2083693e-26
1.5448495e-26
1.1069397e-26
7.7065697e-27
5.4997005e-27
3.8098653e-27
2.7095545e-27
1.873868e-27
1.3405784e-27
9.4126854e-28
6.9534651e-28
5.3038595e-28
4.5812421e-28
4.0866516e-28
3.8533148e-28
3.6355352e-28
3.4359663e-28
3.2427154e-28
3.0571637e-28
2.8767228e-28
2.7026643e-28
2.5341278e-28
2.3724932e-28
2.2157798e-28
2.0653455e-28
1.9194134e-28
1.7793393e-28
1.6438473e-28
1.5143035e-28
1.3898573e-28
1.2718288e-28
1.1596346e-28
1.0544343e-28
9.5573808e-29
8.6442636e-29
7.7995704e-29
7.0286857e-29
6.3249429e-29
5.6905069e-29
5.1175769e-29
4.6059426e-29
4.1473169e-29
3.740188e-29
3.3765419e-29
3.05449e-29
2.7668556e-29
2.5119602e-29
2.2837253e-29
2.0809328e-29
1.8986078e-29
1.7360134e-29
1.5891405e-29
1.4576444e-29
1.3382989e-29
1.2310379e-29
1.1332478e-29
1.045043e-29
9.6428476e-30
8.9119645e-30
8.2401018e-30
7.6300954e-30
7.0672058e-30
6.5545553e-30
6.0797692e-30
5.6460546e-30
5.242965e-30
4.8736642e-30
4.5292957e-30
4.2128998e-30
3.9169411e-30
3.6442874e-30
3.3885101e-30
3.1522799e-30
2.9301072e-30
2.7244695e-30
2.5306964e-30
2.3510945e-30
2.1817036e-30
2.0246372e-30
1.5709545e-06
8.5047937e-07
4.6483699e-07
2.5627001e-07
1.4168593e-07
7.8568415e-08
4.3489933e-08
2.4053532e-08
1.3241186e-08
7.2675262e-09
3.964666e-09
2.1549299e-09
1.1642301e-09
6.2710718e-10
3.3623668e-10
1.8010635e-10
9.6306334e-11
5.1625672e-11
2.774753e-11
1.5025803e-11
8.2073585e-12
4.5462393e-12
2.5589966e-12
1.4717582e-12
8.6692524e-13
5.2545289e-13
3.2823773e-13
2.1188273e-13
1.4130809e-13
9.7369462e-14
6.9179261e-14
5.0581559e-14
3.7948743e-14
2.9135573e-14
2.2826677e-14
1.8202241e-14
1.4740071e-14
1.2095128e-14
1.0040919e-14
8.4179293e-15
7.1197298e-15
6.0658931e-15
5.2028786e-15
4.4868541e-15
3.8893544e-15
3.3847892e-15
2.9573663e-15
2.5912098e-15
2.2772879e-15
2.0052092e-15
1.7697127e-15
1.5636679e-15
1.3839942e-15
1.2255923e-15
1.0866778e-15
9.6347086e-16
8.5497264e-16
7.5829504e-16
6.7292004e-16
5.9658416e-16
5.2906388e-16
4.6854839e-16
4.1499194e-16
3.6692246e-16
3.2439781e-16
2.862069e-16
2.5246373e-16
2.2216369e-16
1.9544654e-16
1.7147486e-16
1.5039499e-16
1.3150752e-16
1.1495364e-16
1.0014955e-16
8.7224634e-17
7.5692923e-17
6.5668662e-17
5.6749233e-17
4.9032618e-17
4.218735e-17
3.6295465e-17
3.1086158e-17
2.6626692e-17
2.2697756e-17
1.9353481e-17
1.6417973e-17
1.3934055e-17
1.1762116e-17
9.9354984e-18
8.3446068e-18
7.0150116e-18
5.8616603e-18
4.9038843e-18
4.0764524e-18
3.3937784e-18
2.806433e-18
2.3250206e-18
1.9125407e-18
1.5766947e-18
1.290125e-18
1.0583539e-18
8.6140303e-19
7.0318301e-19
5.692841e-19
4.6244198e-19
3.7239141e-19
3.0102314e-19
2.411142e-19
1.9395589e-19
1.5452802e-19
1.2370215e-19
9.8031486e-20
7.8097464e-20
6.1562114e-20
4.8808878e-20
3.8270963e-20
3.0198365e-20
2.3553512e-20
1.8497565e-20
1.4351511e-20
1.1218083e-20
8.6581072e-21
6.7363522e-21
5.1720446e-21
4.005575e-21
3.0594898e-21
2.3587062e-21
1.7923374e-21
1.3755926e-21
1.0399547e-21
7.9461061e-22
5.976907e-22
4.546873e-22
3.4029335e-22
2.5775955e-22
1.9195401e-22
1.4478192e-22
1.0729128e-22
8.058806e-23
5.9431551e-23
4.4457852e-23
3.2630415e-23
2.4311838e-23
1.7760451e-23
1.3181178e-23
9.5849399e-24
7.0866038e-24
5.1299284e-24
3.7787968e-24
2.7233582e-24
1.9988757e-24
1.434349e-24
1.0491039e-24
7.4962241e-25
5.4642276e-25
3.888116e-25
2.8247508e-25
2.0016931e-25
1.4494769e-25
1.0229079e-25
7.3827246e-26
5.1882114e-26
3.7318175e-26
2.6110489e-26
1.8712941e-26
1.3031015e-26
9.3017837e-27
6.4455293e-27
4.5854486e-27
3.1722831e-27
2.2703353e-27
1.5947509e-27
1.1786393e-27
8.9948037e-28
7.7736514e-28
6.93864e-28
6.5468364e-28
6.1813193e-28
5.8466277e-28
5.5225062e-28
5.2112936e-28
4.9085178e-28
4.6163182e-28
4.3331507e-28
4.0613382e-28
3.7974126e-28
3.5436623e-28
3.2969708e-28
3.0596445e-28
2.8294571e-28
2.6087777e-28
2.396165e-28
2.1939638e-28
2.0012464e-28
1.8201187e-28
1.6498415e-28
1.492042e-28
1.3458824e-28
1.2123728e-28
1.0904296e-28
9.8047006e-29
8.8118163e-29
7.9254077e-29
7.131273e-29
6.4267474e-29
5.7979772e-29
5.2415729e-29
4.7450861e-29
4.3054818e-29
3.9122118e-29
3.5630582e-29
3.2493991e-29
2.9698756e-29
2.7175547e-29
2.4917798e-29
2.2869851e-29
2.1030136e-29
1.9353664e-29
1.7842103e-29
1.6458711e-29
1.520711e-29
1.4056981e-29
1.301303e-29
1.2050015e-29
1.1173167e-29
1.0361315e-29
9.6198607e-30
8.9309461e-30
8.2999141e-30
7.7116358e-30
7.1712527e-30
6.6659001e-30
6.2004308e-30
5.7638726e-30
5.3607455e-30
4.9816828e-30
4.6308791e-30
4.300374e-30
3.9940838e-30
3.705274e-30
3.4375421e-30
2.8371414e-06
1.5336274e-06
8.3688619e-07
4.6062382e-07
2.5423033e-07
1.4072536e-07
7.7750677e-08
4.2919554e-08
2.3579194e-08
1.2914614e-08
7.029997e-09
3.8123936e-09
2.0548228e-09
1.1040872e-09
5.9044408e-10
3.1541299e-10
1.6817306e-10
8.9877413e-11
4.8151948e-11
2.5986828e-11
1.414359e-11
7.8049797e-12
4.3760334e-12
2.5066389e-12
1.4704856e-12
8.8768933e-13
5.5237098e-13
3.5527883e-13
2.3616945e-13
1.6227075e-13
1.1501081e-13
8.3922715e-14
6.2859544e-14
4.8197439e-14
3.7721233e-14
3.0054173e-14
2.432153e-14
1.9946722e-14
1.6551983e-14
1.3871798e-14
1.1729238e-14
9.990829e-15
8.5677794e-15
7.3875075e-15
6.4028894e-15
5.5716188e-15
4.8675847e-15
4.2645723e-15
3.7476616e-15
3.2997094e-15
2.9120302e-15
2.5728685e-15
2.2771407e-15
2.0164442e-15
1.787835e-15
1.5850876e-15
1.4065538e-15
1.2474782e-15
1.1070059e-15
9.8141068e-16
8.7032333e-16
7.7076343e-16
6.8265479e-16
6.0357485e-16
5.3361823e-16
4.707921e-16
4.1528364e-16
3.6543993e-16
3.2149066e-16
2.8205809e-16
2.4738279e-16
2.1631414e-16
1.8908433e-16
1.6473293e-16
1.4347274e-16
1.2450433e-16
1.0801559e-16
9.3344228e-17
8.0651391e-17
6.9391846e-17
5.9700511e-17
5.1131942e-17
4.3796769e-17
3.7334253e-17
3.1833425e-17
2.7004963e-17
2.29193e-17
1.9346799e-17
1.63423e-17
1.3725535e-17
1.1538562e-17
9.6414837e-18
8.0660956e-18
6.705103e-18
5.5822144e-18
4.6161259e-18
3.8242805e-18
3.145818e-18
2.5934057e-18
2.1220451e-18
1.7408194e-18
1.4168672e-18
1.156621e-18
9.3637911e-19
7.6064124e-19
6.1252273e-19
4.9513357e-19
3.9659315e-19
3.1902544e-19
2.5417304e-19
2.0346953e-19
1.6124549e-19
1.2845729e-19
1.0125936e-19
8.0282382e-20
6.2949248e-20
4.9671157e-20
3.8741476e-20
3.0425284e-20
2.3605717e-20
1.8451755e-20
1.4241027e-20
1.1080066e-20
8.5070489e-21
6.5884081e-21
5.0322639e-21
3.879599e-21
2.9480248e-21
2.2625558e-21
1.7104948e-21
1.3069507e-21
9.8305651e-22
7.4784492e-22
5.5969116e-22
4.2394108e-22
3.1570619e-22
2.3811938e-22
1.764569e-22
1.3253725e-22
9.7740929e-23
7.3113756e-23
5.3661573e-23
3.9980453e-23
2.9205984e-23
2.1674986e-23
1.5760843e-23
1.1652319e-23
8.4346747e-24
6.2128676e-24
4.4773761e-24
3.2861218e-24
2.3579287e-24
1.7245325e-24
1.2321732e-24
8.9811896e-25
6.3902823e-25
4.6423401e-25
3.2895084e-25
2.3818954e-25
1.6808448e-25
1.2130811e-25
8.5246409e-26
6.1315183e-26
4.2899939e-26
3.0745642e-26
2.1410484e-26
1.5283725e-26
1.0591211e-26
7.5353548e-27
5.2136385e-27
3.731816e-27
2.6218035e-27
1.9381326e-27
1.4794819e-27
1.2790321e-27
1.1420742e-27
1.0780616e-27
1.0183945e-27
9.6382342e-28
9.1100623e-28
8.6032632e-28
8.1103606e-28
7.6348318e-28
7.1739877e-28
6.7315883e-28
6.3017188e-28
5.8880619e-28
5.4852563e-28
5.0970264e-28
4.7195145e-28
4.3566174e-28
4.0058776e-28
3.671267e-28
3.3513121e-28
3.0496972e-28
2.7653593e-28
2.5012304e-28
2.2561027e-28
2.031849e-28
1.8268063e-28
1.6417875e-28
1.4746809e-28
1.3254955e-28
1.1918856e-28
1.0734096e-28
9.6774896e-29
8.743196e-29
7.9102615e-29
7.1733832e-29
6.5147757e-29
5.9305267e-29
5.4061091e-29
4.9390963e-29
4.51783e-29
4.1411042e-29
3.7995833e-29
3.4929314e-29
3.2136205e-29
2.9618793e-29
2.7315728e-29
2.5232708e-29
2.3319188e-29
2.1582773e-29
1.9981433e-29
1.8523707e-29
1.7174379e-29
1.5942306e-29
1.4797811e-29
1.3749677e-29
1.2772774e-29
1.1875569e-29
1.1036701e-29
1.0264163e-29
9.5397424e-30
8.870881e-30
8.2420321e-30
7.6601061e-30
7.1119041e-30
6.6039031e-30
6.124969e-30
5.6810739e-30
5.0865032e-06
2.7449938e-06
1.495336e-06
8.215612e-07
4.5259289e-07
2.5003918e-07
1.3786649e-07
7.5944237e-08
4.1630752e-08
2.2749676e-08
1.2354166e-08
6.6830978e-09
3.5927348e-09
1.9251901e-09
1.026613e-09
5.4676635e-10
2.9060088e-10
1.5478556e-10
8.2630662e-11
4.4425764e-11
2.4082046e-11
1.3233132e-11
7.3864937e-12
4.2116531e-12
2.4591776e-12
1.4776607e-12
9.1536731e-13
5.8628612e-13
3.8824702e-13
2.6587094e-13
1.8790055e-13
1.3678433e-13
1.0225516e-13
7.8281655e-14
6.1190111e-14
4.8704669e-14
3.9383616e-14
3.2279312e-14
2.6772257e-14
2.2428068e-14
1.8957719e-14
1.6143607e-14
1.3841099e-14
1.1932173e-14
1.0340225e-14
8.9965939e-15
7.8588976e-15
6.8846506e-15
6.0496606e-15
5.3261733e-15
4.7001163e-15
4.1524728e-15
3.6750104e-15
3.2541447e-15
2.8851091e-15
2.5578438e-15
2.2696805e-15
2.0129377e-15
1.7862308e-15
1.5835426e-15
1.4042742e-15
1.2436138e-15
1.1014366e-15
9.7383205e-16
8.609517e-16
7.5957908e-16
6.7001552e-16
5.8959345e-16
5.1868302e-16
4.5506094e-16
3.9911511e-16
3.4898882e-16
3.0505653e-16
2.6576857e-16
2.3146812e-16
2.0086535e-16
1.7426331e-16
1.5059344e-16
1.3011569e-16
1.1195037e-16
9.6315141e-17
8.2491328e-17
7.06574e-17
6.023136e-17
5.1356837e-17
4.3567055e-17
3.6975644e-17
3.1212125e-17
2.6364967e-17
2.2143343e-17
1.8615105e-17
1.5554554e-17
1.3012986e-17
1.0817303e-17
9.0057518e-18
7.4471663e-18
6.1696864e-18
5.0751266e-18
4.1839232e-18
3.4234801e-18
2.808451e-18
2.2858211e-18
1.8659676e-18
1.5106528e-18
1.2271361e-18
9.8817759e-19
7.9879449e-19
6.3981994e-19
5.1468053e-19
4.1005465e-19
3.2825507e-19
2.6013537e-19
2.0723844e-19
1.6336025e-19
1.2951829e-19
1.0155492e-19
8.0133511e-20
6.2500782e-20
4.9084369e-20
3.8082455e-20
2.9767642e-20
2.2974545e-20
1.7875025e-20
1.3724031e-20
1.0628732e-20
8.1182475e-21
6.258688e-21
4.7558135e-21
3.649974e-21
2.7593609e-21
2.108345e-21
1.5858279e-21
1.2063783e-21
9.028466e-22
6.8385445e-22
5.0925218e-22
3.840918e-22
2.8462177e-22
2.1377417e-22
1.5764491e-22
1.1791989e-22
8.6543405e-23
6.4476113e-23
4.7097874e-23
3.4951372e-23
2.5413135e-23
1.8787191e-23
1.3598333e-23
1.001554e-23
7.2171829e-24
5.2964708e-24
3.8000501e-24
2.7789626e-24
1.9853304e-24
1.4469108e-24
1.0293718e-24
7.4770656e-25
5.2974315e-25
3.8352668e-25
2.7060644e-25
1.9527088e-25
1.3720224e-25
9.8671465e-26
6.9027255e-26
4.9464158e-26
3.4441384e-26
2.4583027e-26
1.7033748e-26
1.2118099e-26
8.3839249e-27
6.0008614e-27
4.2159334e-27
3.1166854e-27
2.3793217e-27
2.0572174e-27
1.8372678e-27
1.734719e-27
1.639232e-27
1.5520178e-27
1.467692e-27
1.3868699e-27
1.3083349e-27
1.2326405e-27
1.1593331e-27
1.0890068e-27
1.0206768e-27
9.5491794e-28
8.9082471e-28
8.2897497e-28
7.6870465e-28
7.1062611e-28
6.5431448e-28
6.0041363e-28
5.4868287e-28
4.9974394e-28
4.5344707e-28
4.1030777e-28
3.7016356e-28
3.3335759e-28
2.9964875e-28
2.6919608e-28
2.4167336e-28
2.1709494e-28
1.9508518e-28
1.75575e-28
1.5818621e-28
1.4282133e-28
1.2913556e-28
1.1703859e-28
1.0623683e-28
9.6662839e-29
8.8076829e-29
8.0436433e-29
7.3549571e-29
6.739465e-29
6.1818253e-29
5.6813638e-29
5.2257412e-29
4.815249e-29
4.4398529e-29
4.1004284e-29
3.788723e-29
3.5059398e-29
3.2452252e-29
3.0079448e-29
2.7883623e-29
2.5879009e-29
2.40173e-29
2.2312649e-29
2.072418e-29
1.9265547e-29
1.7902017e-29
1.6646487e-29
1.546934e-29
1.4382579e-29
1.3360921e-29
1.2415516e-29
1.1524924e-29
1.0699648e-29
9.9216699e-30
9.2007236e-30
9.0737081e-06
4.8882326e-06
2.6580278e-06
1.4576015e-06
8.0139739e-07
4.4183034e-07
2.4309397e-07
1.3361085e-07
7.307182e-08
3.9834483e-08
2.1577338e-08
1.1641689e-08
6.2410996e-09
3.3346546e-09
1.7727896e-09
9.411413e-10
4.9850316e-10
2.6456391e-10
1.4069108e-10
7.5331835e-11
4.0657154e-11
2.2237889e-11
1.2352274e-11
7.0073892e-12
4.0703932e-12
2.4331444e-12
1.4996692e-12
9.559714e-13
6.303172e-13
4.299917e-13
3.0289579e-13
2.1989421e-13
1.6401799e-13
1.2533846e-13
9.78322e-14
7.7781393e-14
6.2838735e-14
5.1466283e-14
4.2661179e-14
3.5722142e-14
3.0183361e-14
2.5694934e-14
2.2024524e-14
1.8982917e-14
1.644735e-14
1.4307986e-14
1.2497017e-14
1.0946592e-14
9.618052e-15
8.4671239e-15
7.4713401e-15
6.6003936e-15
5.8411476e-15
5.1719678e-15
4.5852508e-15
4.0649839e-15
3.606911e-15
3.1988101e-15
2.8384719e-15
2.5163258e-15
2.2314147e-15
1.9760871e-15
1.7501414e-15
1.5473604e-15
1.3679831e-15
1.2068965e-15
1.0645782e-15
9.3678841e-16
8.2411439e-16
7.2302281e-16
6.3412949e-16
5.544839e-16
4.8468067e-16
4.222573e-16
3.6775887e-16
3.1913586e-16
2.7686965e-16
2.3926238e-16
2.0672696e-16
1.7786571e-16
1.5302437e-16
1.3106108e-16
1.1225938e-16
9.5694556e-17
8.1594799e-17
6.921849e-17
5.8746151e-17
4.9589165e-17
4.1888086e-17
3.5180849e-17
2.9575255e-17
2.4712714e-17
2.0674726e-17
1.7186272e-17
1.4308121e-17
1.1831876e-17
9.8022461e-18
8.0632354e-18
6.6473127e-18
5.4391389e-18
4.4619956e-18
3.6316539e-18
2.964601e-18
2.4000856e-18
1.9496413e-18
1.5699899e-18
1.2691028e-18
1.0165281e-18
8.1770975e-19
6.5148284e-19
5.2152178e-19
4.1329499e-19
3.2925375e-19
2.5954127e-19
2.0577409e-19
1.6134668e-19
1.2731296e-19
9.9298612e-20
7.7983029e-20
6.0503547e-20
4.7293253e-20
3.6500627e-20
2.8398702e-20
2.1803775e-20
1.6886099e-20
1.2897565e-20
9.9431932e-21
7.5555152e-21
5.7986278e-21
4.3836873e-21
3.3494052e-21
2.5192789e-21
1.916448e-21
1.4342334e-21
1.0863276e-21
8.0894702e-22
6.1011387e-22
4.5209646e-22
3.3954992e-22
2.5038706e-22
1.872839e-22
1.3744422e-22
1.0239246e-22
7.479013e-23
5.5498101e-23
4.0349658e-23
2.9826877e-23
2.1587002e-23
1.5897832e-23
1.1454712e-23
8.4052739e-24
6.0297488e-24
4.4089272e-24
3.1493368e-24
2.2948797e-24
1.6323685e-24
1.1854982e-24
8.3976012e-25
6.0785815e-25
4.2880385e-25
3.0936372e-25
2.1732148e-25
1.5625761e-25
1.0928938e-25
7.8298946e-26
5.4507366e-26
3.8897477e-26
2.6947058e-26
1.9167056e-26
1.3258505e-26
9.4884431e-27
6.6652963e-27
4.9269171e-27
3.7610316e-27
3.2517963e-27
2.9041974e-27
2.7423216e-27
2.5917579e-27
2.4544243e-27
2.3218049e-27
2.1948727e-27
2.0716922e-27
1.9531322e-27
1.8384518e-27
1.728576e-27
1.6219034e-27
1.5193145e-27
1.4193107e-27
1.3227638e-27
1.2285437e-27
1.1375766e-27
1.0491209e-27
9.6417779e-28
8.823362e-28
8.0460698e-28
7.3077356e-28
6.6171758e-28
5.9723463e-28
5.3794338e-28
4.835152e-28
4.3425946e-28
3.8969227e-28
3.498666e-28
3.1419768e-28
2.8258447e-28
2.5442329e-28
2.2955626e-28
2.0742628e-28
1.8788271e-28
1.7044893e-28
1.5501072e-28
1.4117853e-28
1.2887962e-28
1.1780246e-28
1.0790908e-28
9.8951306e-29
9.0916165e-29
8.3604579e-29
7.7019861e-29
7.1000497e-29
6.5559651e-29
6.0564738e-29
5.6034463e-29
5.1858871e-29
4.8059441e-29
4.4544238e-29
4.1335771e-29
3.8356682e-29
3.5629412e-29
3.3088536e-29
3.0755736e-29
2.8575432e-29
2.6568103e-29
2.4686348e-29
2.2949212e-29
2.1316217e-29
1.980506e-29
1.8381461e-29
1.7062195e-29
1.5818594e-29
1.4666315e-29
1.6128563e-05
8.673263e-06
4.7073142e-06
2.5763308e-06
1.4135824e-06
7.7768429e-07
4.2692855e-07
2.341086e-07
1.2772479e-07
6.9453029e-08
3.752199e-08
2.0188784e-08
1.0791996e-08
5.7488019e-09
3.046466e-09
1.6118705e-09
8.5072153e-10
4.497767e-10
2.3821279e-10
1.2699591e-10
6.8222422e-11
3.7130658e-11
2.0516597e-11
1.1575258e-11
6.685814e-12
3.9738962e-12
2.4357023e-12
1.5444725e-12
1.0134186e-12
6.8837211e-13
4.8311492e-13
3.4964507e-13
2.601383e-13
1.983855e-13
1.5459639e-13
1.2275268e-13
9.9068742e-14
8.1073138e-14
6.715885e-14
5.620555e-14
4.747051e-14
4.0397261e-14
3.461671e-14
2.9828949e-14
2.5839476e-14
2.2474626e-14
1.9627175e-14
1.7190034e-14
1.5102155e-14
1.3293761e-14
1.1729405e-14
1.0361369e-14
9.1689409e-15
8.1180858e-15
7.1968196e-15
6.3799659e-15
5.6608171e-15
5.0201658e-15
4.4545289e-15
3.948871e-15
3.5016808e-15
3.1009414e-15
2.7463309e-15
2.4280872e-15
2.1465816e-15
1.8937874e-15
1.6704517e-15
1.4699195e-15
1.2931108e-15
1.13448e-15
9.9499258e-16
8.7001792e-16
7.6048854e-16
6.6254002e-16
5.770273e-16
5.0073423e-16
4.3441588e-16
3.7540807e-16
3.2435853e-16
2.7907413e-16
2.4009727e-16
2.0563629e-16
1.7613599e-16
1.5014548e-16
1.2802275e-16
1.0860416e-16
9.2172952e-17
7.7805562e-17
6.5722515e-17
5.5198823e-17
4.640362e-17
3.8774276e-17
3.2438661e-17
2.6965269e-17
2.2449445e-17
1.8564213e-17
1.5379721e-17
1.2651212e-17
1.0429629e-17
8.5340038e-18
7.0008658e-18
5.6980598e-18
4.651454e-18
3.7657296e-18
3.0589828e-18
2.46331e-18
1.9912183e-18
1.5949288e-18
1.2829831e-18
1.0221733e-18
8.1826457e-19
6.4845695e-19
5.1659643e-19
4.0721776e-19
3.2285723e-19
2.5315079e-19
1.9975205e-19
1.557977e-19
1.223537e-19
9.4928539e-20
7.4201715e-20
5.7268219e-20
4.4556411e-20
3.4209088e-20
2.6493353e-20
2.0235443e-20
1.5600119e-20
1.1853939e-20
9.0974535e-21
6.8774839e-21
5.2547543e-21
3.9523454e-21
3.0065518e-21
2.2500051e-21
1.7041796e-21
1.2690074e-21
9.5706865e-22
7.0916907e-22
5.3260717e-22
3.9273347e-22
2.9374261e-22
2.1556139e-22
1.6057865e-22
1.1728339e-22
8.7024102e-23
6.3265513e-23
4.6762425e-23
3.3840725e-23
2.491949e-23
1.7952915e-23
1.3171874e-23
9.4478952e-24
6.9072316e-24
4.9331065e-24
3.5940702e-24
2.5560253e-24
1.855937e-24
1.3144021e-24
9.5122072e-25
6.7087197e-25
4.8389182e-25
3.3984128e-25
2.4429028e-25
1.7081747e-25
1.2234824e-25
8.5149829e-26
6.0748649e-26
4.2074052e-26
2.9919076e-26
2.0690965e-26
1.4804012e-26
1.0397027e-26
7.6838502e-27
5.8645661e-27
5.0698063e-27
4.5274181e-27
4.2748429e-27
4.0401618e-27
3.8263676e-27
3.6201874e-27
3.4231423e-27
3.2322076e-27
3.0487364e-27
2.8715505e-27
2.702079e-27
2.5377738e-27
2.3799712e-27
2.226244e-27
2.0778854e-27
1.9330057e-27
1.7929657e-27
1.6564741e-27
1.5250293e-27
1.3979015e-27
1.2766721e-27
1.161002e-27
1.0523517e-27
9.5047675e-28
8.5646825e-28
7.6990884e-28
6.9139106e-28
6.2022815e-28
5.5656735e-28
4.995237e-28
4.4896243e-28
4.0393894e-28
3.6420503e-28
3.2887468e-28
2.9770137e-28
2.699218e-28
2.4534546e-28
2.233475e-28
2.0380479e-28
1.8621824e-28
1.7052219e-28
1.5632007e-28
1.4358774e-28
1.3200803e-28
1.215839e-28
1.1205869e-28
1.0345178e-28
9.5552907e-29
8.8390716e-29
8.1791093e-29
7.5787362e-29
7.0234103e-29
6.5166443e-29
6.0462113e-29
5.615624e-29
5.2145469e-29
4.8463776e-29
4.502338e-29
4.1856365e-29
3.888784e-29
3.6147603e-29
3.3571662e-29
3.118771e-29
2.8941636e-29
2.6859898e-29
2.4897532e-29
2.3079472e-29
2.859147e-05
1.5347151e-05
8.3135084e-06
4.5409158e-06
2.4862999e-06
1.3648633e-06
7.4756985e-07
4.0896368e-07
2.2257005e-07
1.207153e-07
6.50405e-08
3.4896594e-08
1.8598893e-08
9.8766901e-09
5.2167746e-09
2.7505938e-09
1.4463599e-09
7.6168254e-10
4.0170413e-10
2.131888e-10
1.1396914e-10
6.1706557e-11
3.390727e-11
1.9018746e-11
1.0918771e-11
6.4501686e-12
3.9295928e-12
2.4773747e-12
1.6168848e-12
1.0930594e-12
7.6397993e-13
5.5100693e-13
4.0879037e-13
3.1103624e-13
2.4193894e-13
1.9182558e-13
1.5463652e-13
1.2643132e-13
1.0465583e-13
8.7535416e-14
7.3896099e-14
6.2860839e-14
5.3848628e-14
4.6388549e-14
4.0175338e-14
3.4937058e-14
3.0505782e-14
2.6714164e-14
2.346674e-14
2.0654634e-14
1.8222476e-14
1.6095894e-14
1.4242559e-14
1.260947e-14
1.1177929e-14
9.9087567e-15
8.7914884e-15
7.7962498e-15
6.9176042e-15
6.1321758e-15
5.4376014e-15
4.8152038e-15
4.2644734e-15
3.7702413e-15
3.3330782e-15
2.9405141e-15
2.5937055e-15
2.2823145e-15
2.0077679e-15
1.7614524e-15
1.5448654e-15
1.3508157e-15
1.1807503e-15
1.0286682e-15
8.9589607e-16
7.7743997e-16
6.7447187e-16
5.8285495e-16
5.0359471e-16
4.3328583e-16
3.7277034e-16
3.192664e-16
2.7346454e-16
2.3311204e-16
1.9876466e-16
1.6861576e-16
1.4310504e-16
1.2079858e-16
1.0203876e-16
8.5699967e-17
7.2044787e-17
6.0199694e-17
5.036321e-17
4.1865392e-17
3.4854265e-17
2.8822178e-17
2.3878039e-17
1.9641845e-17
1.6192687e-17
1.3249603e-17
1.0869304e-17
8.8466103e-18
7.2216852e-18
5.8465394e-18
4.749268e-18
3.8244466e-18
3.0914932e-18
2.4762276e-18
1.9919114e-18
1.5869872e-18
1.2704056e-18
1.0067683e-18
8.0204632e-19
6.3222894e-19
5.0125384e-19
3.9303023e-19
3.1012536e-19
2.4188356e-19
1.8995972e-19
1.4738056e-19
1.1520098e-19
8.8910801e-20
6.9175043e-20
5.3110312e-20
4.1131269e-20
3.1415601e-20
2.421908e-20
1.8403016e-20
1.4123497e-20
1.0676956e-20
8.1576506e-21
6.135664e-21
4.66733e-21
3.4928137e-21
2.6454422e-21
1.9698664e-21
1.4856072e-21
1.1007719e-21
8.2668384e-22
6.0955547e-22
4.5589302e-22
3.3453779e-22
2.4919399e-22
1.8199475e-22
1.3503032e-22
9.8157773e-23
7.2546567e-23
5.2494968e-23
3.8651919e-23
2.7843013e-23
2.0425535e-23
1.4648751e-23
1.0707894e-23
7.6462727e-24
5.5698012e-24
3.9603791e-24
2.8750661e-24
2.0357319e-24
1.4729095e-24
1.0385607e-24
7.4891594e-25
5.2583456e-25
3.7788806e-25
2.6416163e-25
1.8915264e-25
1.3160528e-25
9.3864009e-26
6.4990362e-26
4.6201357e-26
3.1941884e-26
2.2847286e-26
1.6041458e-26
1.1852186e-26
9.0437441e-27
7.8163962e-27
6.978818e-27
6.5884594e-27
6.2260924e-27
5.8963295e-27
5.5787265e-27
5.2756369e-27
4.9824034e-27
4.7011168e-27
4.429947e-27
4.1710899e-27
3.9205678e-27
3.6804035e-27
3.4467458e-27
3.2215016e-27
3.0015778e-27
2.7889364e-27
2.5813617e-27
2.381025e-27
2.1866089e-27
2.0004952e-27
1.8220942e-27
1.6537424e-27
1.4951452e-27
1.348174e-27
1.2123413e-27
1.0887556e-27
9.7649022e-28
8.7590114e-28
7.8568844e-28
7.0569846e-28
6.3448189e-28
5.7166107e-28
5.1584701e-28
4.6664363e-28
4.2284287e-28
3.8413126e-28
3.4951715e-28
3.1879456e-28
2.9117212e-28
2.6653759e-28