# vtk DataFile Version 3.0
Reduced x-z stratification field
ASCII
DATASET STRUCTURED_POINTS
DIMENSIONS 241 81 1
ORIGIN 0 -0.6 0
SPACING 5 0.015 1
POINT_DATA 19521
SCALARS x_H2 float 1
LOOKUP_TABLE default
2.3567507e-06
1.0792175e-06
5.1124552e-07
2.497071e-07
1.2411094e-07
6.2705203e-08
3.1870028e-08
1.6305441e-08
8.3272831e-09
4.2539592e-09
2.1590354e-09
1.0922651e-09
5.4786787e-10
2.7365173e-10
1.3557106e-10
6.6974746e-11
3.2909576e-11
1.6186331e-11
7.9610725e-12
3.9441879e-12
1.9699733e-12
1.0000424e-12
5.1728194e-13
2.7493547e-13
1.5064972e-13
8.569718e-14
5.0713252e-14
3.1324085e-14
2.0174943e-14
1.353626e-14
9.4271743e-15
6.790556e-15
5.0377069e-15
3.8334418e-15
2.9817133e-15
2.3621637e-15
1.9015213e-15
1.5508477e-15
1.2797301e-15
1.0658378e-15
8.9539483e-16
7.5711222e-16
6.4431399e-16
5.5075962e-16
4.7305649e-16
4.0747667e-16
3.5224856e-16
3.0499095e-16
2.6477462e-16
2.299888e-16
2.0015889e-16
1.7414134e-16
1.517128e-16
1.3202845e-16
1.1500491e-16
9.9997931e-17
8.7001076e-17
7.5510894e-17
6.5561353e-17
5.6751997e-17
4.9135656e-17
4.2390031e-17
3.6574151e-17
3.1426897e-17
2.7006221e-17
2.3100117e-17
1.9761518e-17
1.6818576e-17
1.4317356e-17
1.2119237e-17
1.0262869e-17
8.6372716e-18
7.2739175e-18
6.0848173e-18
5.094945e-18
4.2353357e-18
3.5253533e-18
2.9116373e-18
2.4088846e-18
1.9763826e-18
1.6250649e-18
1.324326e-18
1.0821472e-18
8.7587304e-19
7.1122471e-19
5.7169506e-19
4.6131399e-19
3.6824619e-19
2.9528232e-19
2.3407334e-19
1.8652001e-19
1.4682772e-19
1.1627029e-19
9.0890827e-20
7.1529564e-20
5.5527823e-20
4.3431257e-20
3.3481903e-20
2.6028714e-20
1.9927611e-20
1.5398408e-20
1.1708143e-20
8.9932366e-21
6.7913346e-21
5.1858701e-21
3.889618e-21
2.9528715e-21
2.1998703e-21
1.6605023e-21
1.2288016e-21
9.2228176e-22
6.7798397e-22
5.060297e-22
3.695474e-22
2.7430727e-22
1.9901947e-22
1.4692967e-22
1.0591521e-22
7.7777762e-23
5.570856e-23
4.0694772e-23
2.896345e-23
2.104859e-23
1.4887019e-23
1.0763977e-23
7.5658672e-24
5.443173e-24
3.8024861e-24
2.7222331e-24
1.8901606e-24
1.3466543e-24
9.2942785e-25
6.590338e-25
4.5214868e-25
3.1911103e-25
2.176487e-25
1.5290342e-25
1.0368025e-25
7.2507933e-26
4.8881677e-26
3.4031582e-26
2.2810077e-26
1.5809161e-26
1.0534367e-26
7.2676311e-27
4.8135076e-27
3.3049298e-27
2.1752105e-27
1.486454e-27
9.7252824e-28
6.6217055e-28
4.3240441e-28
2.9652435e-28
1.9915817e-28
1.4668939e-28
1.1286719e-28
1.0080128e-28
9.122556e-29
8.4557375e-29
7.8338128e-29
7.2642891e-29
6.7359375e-29
6.2557232e-29
5.8061302e-29
5.3924038e-29
5.0037446e-29
4.6445272e-29
4.3074996e-29
3.9966293e-29
3.7052188e-29
3.4368482e-29
3.1852896e-29
2.9537395e-29
2.7366427e-29
2.536849e-29
2.3494303e-29
2.1769225e-29
2.0149609e-29
1.865795e-29
1.7255741e-29
1.5962856e-29
1.4745492e-29
1.362113e-29
1.2560278e-29
1.1578258e-29
1.064958e-29
9.7876715e-30
8.9708453e-30
8.2109404e-30
7.4899711e-30
6.818507e-30
6.1821553e-30
5.59045e-30
5.0322998e-30
4.5162e-30
4.0337253e-30
3.5920302e-30
3.1844121e-30
2.8162502e-30
2.4816169e-30
2.1838807e-30
1.9173017e-30
1.6834245e-30
1.4766048e-30
1.2971113e-30
1.139639e-30
1.0038281e-30
8.8501538e-31
7.8271637e-31
6.9307682e-31
6.1575126e-31
5.4768808e-31
4.8874798e-31
4.3656525e-31
3.9117208e-31
3.5074014e-31
3.154117e-31
2.8376313e-31
2.5599433e-31
2.3098427e-31
2.0895524e-31
1.890148e-31
1.7138678e-31
1.5535417e-31
1.4113086e-31
1.2813663e-31
1.1656956e-31
1.0595752e-31
9.648015e-32
8.7751583e-32
7.9932319e-32
7.2705918e-32
6.6214243e-32
6.0197433e-32
5.4780335e-32
4.9750021e-32
4.5216054e-32
4.1003415e-32
3.7205939e-32
3.3677997e-32
3.0498774e-32
4.5238892e-06
2.0702087e-06
9.8000314e-07
4.7830973e-07
2.3754902e-07
1.1992178e-07
6.0899202e-08
3.113021e-08
1.5883847e-08
8.1064999e-09
4.1102563e-09
2.0772549e-09
1.0408055e-09
5.1928405e-10
2.5695846e-10
1.2678652e-10
6.2218769e-11
3.0560177e-11
1.5009016e-11
7.4246664e-12
3.7023666e-12
1.8763024e-12
9.688243e-13
5.1400114e-13
2.811347e-13
1.5964253e-13
9.4316135e-14
5.8169706e-14
3.7417154e-14
2.5077844e-14
1.745e-14
1.2560919e-14
9.3136057e-15
7.0842844e-15
5.5085413e-15
4.3629041e-15
3.5114428e-15
2.8634523e-15
2.3625939e-15
1.9675318e-15
1.6527722e-15
1.3974374e-15
1.1891814e-15
1.0164703e-15
8.7303301e-16
7.5198258e-16
6.5004529e-16
5.628235e-16
4.8860044e-16
4.2440206e-16
3.6935154e-16
3.2133786e-16
2.7994834e-16
2.4362363e-16
2.1220959e-16
1.8451714e-16
1.605343e-16
1.3933192e-16
1.209726e-16
1.0471733e-16
9.0663549e-17
7.8216505e-17
6.7485087e-17
5.798746e-17
4.9830538e-17
4.2623118e-17
3.6462858e-17
3.1032666e-17
2.6417531e-17
2.2361673e-17
1.8936401e-17
1.593694e-17
1.3421359e-17
1.1227304e-17
9.4008529e-18
7.8147566e-18
6.504743e-18
5.3723547e-18
4.4447088e-18
3.6466851e-18
2.9984575e-18
2.4435546e-18
1.9967029e-18
1.6161e-18
1.3123023e-18
1.0548519e-18
8.5118437e-19
6.7946213e-19
5.4483429e-19
4.3189575e-19
3.4415367e-19
2.7091623e-19
2.145338e-19
1.6770539e-19
1.3198134e-19
1.0245605e-19
8.0136317e-20
6.1778465e-20
4.8026363e-20
3.6769034e-20
2.8412068e-20
2.1603049e-20
1.6593693e-20
1.2530898e-20
9.5686071e-21
7.1768532e-21
5.4484341e-21
4.059049e-21
3.0638448e-21
2.2673007e-21
1.7017316e-21
1.2509703e-21
9.3369216e-22
6.8186442e-22
5.0613389e-22
3.6721797e-22
2.7110541e-22
1.9542828e-22
1.4351093e-22
1.0279028e-22
7.508781e-23
5.3441908e-23
3.8837895e-23
2.7468925e-23
1.9861322e-23
1.3960337e-23
1.0043648e-23
7.016323e-24
5.0230829e-24
3.487767e-24
2.4849021e-24
1.7150396e-24
1.2161089e-24
8.3436009e-25
5.8887477e-25
4.0164997e-25
2.821768e-25
1.91344e-25
1.3382018e-25
9.0219942e-26
6.2814869e-26
4.2105131e-26
2.9184332e-26
1.944856e-26
1.3418875e-26
8.8886581e-27
6.1037415e-27
4.0179411e-27
2.7462018e-27
1.7971042e-27
1.2238942e-27
7.9943122e-28
5.4838316e-28
3.6844401e-28
2.7148164e-28
2.0897654e-28
1.8672635e-28
1.6907833e-28
1.5681187e-28
1.4537197e-28
1.3489835e-28
1.2518219e-28
1.163536e-28
1.0808658e-28
1.0047933e-28
9.3330281e-29
8.6721654e-29
8.0517784e-29
7.4793642e-29
6.942381e-29
6.4476341e-29
5.9834462e-29
5.5559282e-29
5.1546481e-29
4.7850828e-29
4.4379591e-29
4.1181743e-29
3.8174952e-29
3.5402835e-29
3.2792549e-29
3.0382755e-29
2.8109303e-29
2.6006295e-29
2.4017576e-29
2.2173114e-29
2.0424236e-29
1.8797279e-29
1.7250783e-29
1.5808074e-29
1.4434835e-29
1.3152043e-29
1.193243e-29
1.0795102e-29
9.7193177e-30
8.7222444e-30
7.7883536e-30
6.9321394e-30
6.141293e-30
5.4266413e-30
4.7771354e-30
4.1994325e-30
3.6826062e-30
3.2295799e-30
2.8294625e-30
2.4826183e-30
2.1787601e-30
1.9170313e-30
1.6883898e-30
1.4917683e-30
1.319711e-30
1.1714545e-30
1.0411144e-30
9.2835408e-31
8.2862701e-31
7.4194725e-31
6.6481218e-31
5.9746098e-31
5.3717406e-31
4.8430989e-31
4.3673216e-31
3.948479e-31
3.5695994e-31
3.2348194e-31
2.9305284e-31
2.6606981e-31
2.4143323e-31
2.1951188e-31
1.9941225e-31
1.8146931e-31
1.6495372e-31
1.5016495e-31
1.3650559e-31
1.2424036e-31
1.1287921e-31
1.0265514e-31
9.3167128e-32
8.4619759e-32
7.6683867e-32
6.9534489e-32
6.2897811e-32
5.6921225e-32
8.4391641e-06
3.857762e-06
1.8241466e-06
8.8926698e-07
4.4110464e-07
2.2239739e-07
1.1278709e-07
5.7573472e-08
2.9333233e-08
1.4947774e-08
7.5669384e-09
3.8178766e-09
1.9096262e-09
9.5104018e-10
4.6971248e-10
2.3130174e-10
1.1327013e-10
5.5512334e-11
2.7199837e-11
1.3421866e-11
6.6752986e-12
3.3735704e-12
1.7368856e-12
9.1874748e-13
5.0100652e-13
2.8366665e-13
1.6712824e-13
1.0282076e-13
6.5995788e-14
4.415213e-14
3.0677638e-14
2.2057008e-14
1.6340065e-14
1.2420308e-14
9.6525756e-15
7.6419698e-15
6.1486303e-15
5.0127456e-15
4.135142e-15
3.4431481e-15
2.8919629e-15
2.4449378e-15
2.0804022e-15
1.7781309e-15
1.527125e-15
1.3153171e-15
1.1369684e-15
9.843775e-16
8.5453581e-16
7.4223701e-16
6.4594474e-16
5.6196452e-16
4.8957319e-16
4.2604233e-16
3.7110161e-16
3.2267083e-16
2.8072857e-16
2.4364959e-16
2.115431e-16
1.8311655e-16
1.5854016e-16
1.3677377e-16
1.1800771e-16
1.0139932e-16
8.7135497e-17
7.4532128e-17
6.375995e-17
5.4264454e-17
4.6194237e-17
3.9102021e-17
3.3112486e-17
2.7867552e-17
2.3468751e-17
1.9632183e-17
1.6438421e-17
1.366495e-17
1.1374244e-17
9.3941373e-18
7.7720469e-18
6.3766156e-18
5.2431198e-18
4.2728127e-18
3.491445e-18
2.8259205e-18
2.294698e-18
1.8445188e-18
1.4883848e-18
1.1881105e-18
9.5269961e-19
7.5521477e-19
6.0178858e-19
4.7372526e-19
3.751347e-19
2.9325035e-19
2.3078313e-19
1.7915508e-19
1.401267e-19
1.0802608e-19
8.3979097e-20
6.4294486e-20
4.968146e-20
3.7775181e-20
2.9015801e-20
2.1911581e-20
1.6731707e-20
1.2549477e-20
9.5271556e-21
7.0976711e-21
5.3574529e-21
3.9646125e-21
2.975656e-21
2.1874528e-21
1.6326589e-21
1.1923118e-21
8.8502861e-22
6.4211958e-22
4.740567e-22
3.4172728e-22
2.5094433e-22
1.7973997e-22
1.3129927e-22
9.3449101e-23
6.7912421e-23
4.8032549e-23
3.4729831e-23
2.4411309e-23
1.7562544e-23
1.2268923e-23
8.7835144e-24
6.0988333e-24
4.3452041e-24
2.9990033e-24
2.1265593e-24
1.45902e-24
1.0297549e-24
7.0236431e-25
4.9344695e-25
3.3461029e-25
2.3401963e-25
1.5777585e-25
1.0985227e-25
7.3636252e-26
5.1040885e-26
3.4014933e-26
2.3470066e-26
1.5547228e-26
1.0676636e-26
7.0285663e-27
4.8042357e-27
3.1441124e-27
2.1414426e-27
1.3989003e-27
9.5970747e-28
6.448844e-28
4.7524088e-28
3.6588247e-28
3.2698597e-28
2.96142e-28
2.7471961e-28
2.5474191e-28
2.3645405e-28
2.1948989e-28
2.0407802e-28
1.8964654e-28
1.7636817e-28
1.6388886e-28
1.5235344e-28
1.4152331e-28
1.3153084e-28
1.2215531e-28
1.1351715e-28
1.054107e-28
9.7944359e-29
9.0934214e-29
8.447768e-29
7.8411046e-29
7.2821646e-29
6.7563882e-29
6.2715723e-29
5.8148081e-29
5.3930212e-29
4.9948135e-29
4.6263042e-29
4.2774841e-29
3.953737e-29
3.6463565e-29
3.3600792e-29
3.0874642e-29
2.8327148e-29
2.5896628e-29
2.3621087e-29
2.1451665e-29
1.9423339e-29
1.7499354e-29
1.5711576e-29
1.4033001e-29
1.2490866e-29
1.1064072e-29
9.7730984e-30
8.5988889e-30
7.5540169e-30
6.6192716e-30
5.8000994e-30
5.0770403e-30
4.4506774e-30
3.9024729e-30
3.4307119e-30
3.0190515e-30
2.6653944e-30
2.3562656e-30
2.0901502e-30
1.8564317e-30
1.6544028e-30
1.4758811e-30
1.3208219e-30
1.1829381e-30
1.0626116e-30
9.5497251e-31
8.6063058e-31
7.7576835e-31
7.0109114e-31
6.3357125e-31
5.7393127e-31
5.1974647e-31
4.7171338e-31
4.2787531e-31
3.8888038e-31
3.5314024e-31
3.2124426e-31
2.9189704e-31
2.6562572e-31
2.4136998e-31
2.1959578e-31
1.9943395e-31
1.8129475e-31
1.6446778e-31
1.493138e-31
1.3525049e-31
1.2258629e-31
1.1083658e-31
1.0026039e-31
1.5478207e-05
7.0660674e-06
3.3365202e-06
1.6241711e-06
8.0440456e-07
4.0491834e-07
2.0500631e-07
1.0446481e-07
5.3126393e-08
2.7020742e-08
1.3651223e-08
6.8733447e-09
3.4304024e-09
1.7045293e-09
8.3983592e-10
4.1252181e-10
2.0147681e-10
9.8463715e-11
4.8100677e-11
2.3660119e-11
1.172745e-11
5.9056679e-12
3.0291253e-12
1.596093e-12
8.6696514e-13
4.8898916e-13
2.8705341e-13
1.760203e-13
1.1265495e-13
7.5186583e-14
5.2138943e-14
3.7429695e-14
2.7695063e-14
2.1031962e-14
1.6333639e-14
1.2924335e-14
1.0394369e-14
8.4713415e-15
6.9864118e-15
5.8160666e-15
4.884206e-15
4.1286681e-15
3.5126999e-15
3.002045e-15
2.578069e-15
2.2203534e-15
1.919182e-15
1.6615331e-15
1.4423152e-15
1.25273e-15
1.0901778e-15
9.484176e-16
8.2622558e-16
7.18994e-16
6.262648e-16
5.4452572e-16
4.7373962e-16
4.1116282e-16
3.5697906e-16
3.0900655e-16
2.6753225e-16
2.3080053e-16
1.9913238e-16
1.7110565e-16
1.4703562e-16
1.2576776e-16
1.0759012e-16
9.1566931e-17
7.7948901e-17
6.5981245e-17
5.5874332e-17
4.702391e-17
3.9601292e-17
3.3127413e-17
2.7738224e-17
2.3058247e-17
1.9192896e-17
1.5851657e-17
1.3114538e-17
1.0759886e-17
8.8472255e-18
7.2099302e-18
5.8914519e-18
4.7684474e-18
3.8720642e-18
3.1124333e-18
2.5114941e-18
2.0048123e-18
1.607581e-18
1.2743459e-18
1.0154552e-18
7.9936175e-19
6.3300051e-19
4.9482923e-19
3.8942233e-19
3.0230541e-19
2.364491e-19
1.8228268e-19
1.4170592e-19
1.084902e-19
8.3832252e-20
6.3741655e-20
4.8961121e-20
3.6973494e-20
2.8233001e-20
2.1175925e-20
1.6076076e-20
1.1976576e-20
9.0401399e-21
6.689868e-21
5.0211076e-21
3.6910973e-21
2.7549409e-21
2.0119013e-21
1.4933931e-21
1.0835096e-21
7.999211e-22
5.7662907e-22
4.2344235e-22
3.0329245e-22
2.2155383e-22
1.5768563e-22
1.1459516e-22
8.1049949e-23
5.8603e-23
4.1191568e-23
2.963499e-23
2.0702553e-23
1.4821288e-23
1.0291166e-23
7.3320967e-24
5.0605206e-24
3.5883604e-24
2.4619553e-24
1.7376136e-24
1.1851744e-24
8.3264695e-25
5.6462541e-25
3.9488828e-25
2.6623397e-25
1.853673e-25
1.2425593e-25
8.6128178e-26
5.7398239e-26
3.9604585e-26
2.6235342e-26
1.8016534e-26
1.1860612e-26
8.1071619e-27
5.3057584e-27
3.6137786e-27
2.3607418e-27
1.6196022e-27
1.0883294e-27
8.0205246e-28
6.1750825e-28
5.5187975e-28
4.9984085e-28
4.6370358e-28
4.3000466e-28
3.991581e-28
3.7054586e-28
3.4455406e-28
3.2021722e-28
2.9782716e-28
2.7678594e-28
2.5733839e-28
2.390814e-28
2.2223882e-28
2.0643761e-28
1.9188159e-28
1.7822299e-28
1.6564548e-28
1.5383785e-28
1.4296533e-28
1.3275069e-28
1.2334225e-28
1.1449319e-28
1.0633612e-28
9.8651872e-29
9.1558414e-29
8.4861808e-29
7.8666403e-29
7.2801384e-29
6.7358591e-29
6.2188832e-29
5.7372858e-29
5.2782511e-29
4.8489395e-29
4.4386733e-29
4.0539404e-29
3.6862676e-29
3.3416806e-29
3.013853e-29
2.708371e-29
2.4206874e-29
2.1556783e-29
1.9098847e-29
1.6870391e-29
1.484032e-29
1.3031828e-29
1.1412963e-29
9.9938621e-30
8.7414877e-30
7.6569866e-30
6.7084852e-30
5.89286e-30
5.1818459e-30
4.5715748e-30
4.0387041e-30
3.5803965e-30
3.1782757e-30
2.8309555e-30
2.5243024e-30
2.2581258e-30
2.0215932e-30
1.8152865e-30
1.630835e-30
1.4692371e-30
1.3239437e-30
1.1961322e-30
1.0806163e-30
9.7861176e-31
8.8597022e-31
8.03868e-31
7.289608e-31
6.6234533e-31
6.0130904e-31
5.4685023e-31
4.9675808e-31
4.5192579e-31
4.1054455e-31
3.7340389e-31
3.390217e-31
3.0809347e-31
2.7940939e-31
2.5358245e-31
2.2962255e-31
2.0805344e-31
1.8805026e-31
1.7005144e-31
2.8089085e-05
1.2803832e-05
6.0362367e-06
2.933485e-06
1.4503358e-06
7.2873586e-07
3.6824601e-07
1.872722e-07
9.503921e-08
4.82326e-08
2.4311906e-08
1.2211729e-08
6.0794315e-09
3.0128781e-09
1.4803635e-09
7.2503022e-10
3.5301442e-10
1.7195832e-10
8.3710815e-11
4.1023545e-11
2.0253198e-11
1.0156122e-11
5.1861106e-12
2.7200544e-12
1.4705538e-12
8.2560164e-13
4.8252853e-13
2.9470085e-13
1.879505e-13
1.2506947e-13
8.6522697e-14
6.1995225e-14
4.5803856e-14
3.4744411e-14
2.6959319e-14
2.1317798e-14
1.7135894e-14
1.3959974e-14
1.1509274e-14
9.5788287e-15
8.0424445e-15
6.797223e-15
5.7823341e-15
4.9411714e-15
4.2429329e-15
3.6539197e-15
3.1580848e-15
2.7339563e-15
2.3731295e-15
2.0611058e-15
1.7935948e-15
1.560317e-15
1.359252e-15
1.1828133e-15
1.0302436e-15
8.9576153e-16
7.7930393e-16
6.7635538e-16
5.87217e-16
5.0829864e-16
4.4007168e-16
3.7964751e-16
3.2755378e-16
2.8145075e-16
2.4185684e-16
2.0687268e-16
1.7697198e-16
1.5061537e-16
1.2821516e-16
1.0852975e-16
9.1905127e-17
7.7347333e-17
6.5138136e-17
5.4489514e-17
4.5625077e-17
3.7927207e-17
3.1569288e-17
2.607346e-17
2.1571323e-17
1.7698289e-17
1.4552264e-17
1.1859173e-17
9.6904864e-18
7.843324e-18
6.3689179e-18
5.1194475e-18
4.1309997e-18
3.2975903e-18
2.6442091e-18
2.0960915e-18
1.6702585e-18
1.3148198e-18
1.0411827e-18
8.1391341e-19
6.4053625e-19
4.972431e-19
3.8892022e-19
2.9982528e-19
2.3308312e-19
1.7844868e-19
1.3789038e-19
1.0484462e-19
8.0533056e-20
6.0815365e-20
4.6438679e-20
3.4830941e-20
2.6442521e-20
1.9699512e-20
1.4869554e-20
1.100374e-20
8.2589018e-21
6.071252e-21
4.5314274e-21
3.3092486e-21
2.4563873e-21
1.7821959e-21
1.3157391e-21
9.4846024e-22
6.9649313e-22
4.9886619e-22
3.6441955e-22
2.5936683e-22
1.8849006e-22
1.3331371e-22
9.6392166e-23
6.7753233e-23
4.8744569e-23
3.4052193e-23
2.4378488e-23
1.6927194e-23
1.2060022e-23
8.323664e-24
5.9022106e-24
4.0494681e-24
2.8580514e-24
1.9493864e-24
1.3695415e-24
9.2869498e-25
6.4950878e-25
4.3789704e-25
3.048871e-25
2.0437134e-25
1.4165912e-25
9.440472e-26
6.5138206e-26
4.3149075e-26
2.9631225e-26
1.9506445e-26
1.333311e-26
8.7257052e-27
5.9429732e-27
3.8822056e-27
2.6633282e-27
1.7896226e-27
1.3188243e-27
1.0153327e-27
9.0738125e-28
8.2177931e-28
7.6232541e-28
7.0688418e-28
6.5613613e-28
6.090656e-28
5.6630715e-28
5.2627412e-28
4.8944605e-28
4.5484056e-28
4.2285982e-28
3.928416e-28
3.6515356e-28
3.3918272e-28
3.1526381e-28
2.9282529e-28
2.7216877e-28
2.5278267e-28
2.349384e-28
2.1818004e-28
2.027514e-28
1.8824631e-28
1.7488296e-28
1.6230035e-28
1.5069276e-28
1.3974029e-28
1.2961492e-28
1.200342e-28
1.111495e-28
1.027131e-28
9.4857912e-29
8.7369847e-29
8.0366363e-29
7.3667682e-29
6.7379989e-29
6.1359601e-29
5.5705651e-29
5.0310959e-29
4.5269083e-29
4.0504555e-29
3.610132e-29
3.2004179e-29
2.827928e-29
2.4877984e-29
2.184245e-29
1.9121839e-29
1.6735104e-29
1.4628305e-29
1.2804044e-29
1.1209354e-29
9.8389236e-30
8.6453574e-30
7.6218198e-30
6.7290373e-30
5.9618911e-30
5.2894637e-30
4.7091519e-30
4.1972192e-30
3.7531552e-30
3.3588124e-30
3.0150404e-30
2.70785e-30
2.4388296e-30
2.1970563e-30
1.9844424e-30
1.7923517e-30
1.6227749e-30
1.4688122e-30
1.3323973e-30
1.2079727e-30
1.0973451e-30
9.9600979e-31
9.0561296e-31
8.2248519e-31
7.4809961e-31
6.7945499e-31
6.1785317e-31
5.6083574e-31
5.0955024e-31
4.6199271e-31
4.1917793e-31
3.7946914e-31
3.4373291e-31
3.1060336e-31
2.8080286e-31
5.062252e-05
2.3037799e-05
1.0842317e-05
5.2596861e-06
2.5955105e-06
1.301564e-06
6.563412e-07
3.3305919e-07
1.6863948e-07
8.5381253e-08
4.2929303e-08
2.1506863e-08
1.0677478e-08
5.2763865e-09
2.5846517e-09
1.2618215e-09
6.1228576e-10
2.9717614e-10
1.4410858e-10
7.0330606e-11
3.4568051e-11
1.725251e-11
8.7656004e-12
4.5734034e-12
2.4592927e-12
1.3733743e-12
7.9859733e-13
4.8546398e-13
3.083421e-13
2.0447168e-13
1.4105286e-13
1.008404e-13
7.4373632e-14
5.6340032e-14
4.367096e-14
3.4504949e-14
2.7719129e-14
2.2570936e-14
1.8601563e-14
1.5476884e-14
1.2991357e-14
1.0977732e-14
9.337152e-15
7.9777996e-15
6.8496927e-15
5.8982495e-15
5.0974571e-15
4.4125736e-15
3.8299826e-15
3.3262433e-15
2.8944065e-15
2.5178616e-15
2.1933356e-15
1.9085744e-15
1.6623493e-15
1.4453248e-15
1.2573955e-15
1.0912717e-15
9.4743719e-16
8.2009723e-16
7.1001112e-16
6.1251703e-16
5.2846557e-16
4.5408105e-16
3.9019947e-16
3.3375602e-16
2.8551472e-16
2.4299176e-16
2.0685222e-16
1.7509283e-16
1.4827169e-16
1.2478516e-16
1.0508777e-16
8.7908152e-17
7.3607032e-17
6.118798e-17
5.0930703e-17
4.206426e-17
3.4800952e-17
2.8552584e-17
2.3477104e-17
1.9132347e-17
1.5633611e-17
1.2653591e-17
1.0274938e-17
8.2591738e-18
6.6645161e-18
5.3199814e-18
4.2658855e-18
3.3816107e-18
2.6946168e-18
2.12119e-18
1.679733e-18
1.313081e-18
1.0333728e-18
8.0219889e-19
6.2744231e-19
4.8370605e-19
3.7603139e-19
2.8789002e-19
2.2245759e-19
1.691451e-19
1.2992342e-19
9.8113002e-20
7.4919195e-20
5.6192512e-20
4.2659532e-20
3.1781082e-20
2.3988945e-20
1.7752255e-20
1.3324026e-20
9.7947061e-21
7.310518e-21
5.3387857e-21
3.9628707e-21
2.8752025e-21
2.1226712e-21
1.5301429e-21
1.1236463e-21
8.0481626e-22
5.8791454e-22
4.1843385e-22
3.0408895e-22
2.1507343e-22
1.5550824e-22
1.0930533e-22
7.8638852e-23
5.4935809e-23
3.9329337e-23
2.7308267e-23
1.9456129e-23
1.3428325e-23
9.5218389e-24
6.5328501e-24
4.6107659e-24
3.1448432e-24
2.2093978e-24
1.4981974e-24
1.0477983e-24
7.0641653e-25
4.918395e-25
3.2968491e-25
2.2851646e-25
1.5228583e-25
1.0507351e-25
6.9601615e-26
4.7795421e-26
3.1463136e-26
2.1505058e-26
1.40732e-26
9.5846638e-27
6.2608005e-27
4.2948835e-27
2.8857617e-27
2.1264488e-27
1.6369743e-27
1.4628002e-27
1.324672e-27
1.2287046e-27
1.1392142e-27
1.0572973e-27
9.8131775e-28
9.1229723e-28
8.476802e-28
7.8823856e-28
7.3239085e-28
6.8078413e-28
6.3235271e-28
5.8768764e-28
5.4580261e-28
5.0723532e-28
4.7106614e-28
4.3777933e-28
4.0655174e-28
3.7781901e-28
3.5084755e-28
3.2602867e-28
3.0270877e-28
2.8123817e-28
2.6103576e-28
2.424137e-28
2.2485658e-28
2.0864098e-28
1.9331097e-28
1.7911006e-28
1.6563705e-28
1.5310535e-28
1.4116613e-28
1.3000715e-28
1.1933267e-28
1.0931139e-28
9.9704173e-29
9.0668369e-29
8.2024269e-29
7.392253e-29
6.6238246e-29
5.9110831e-29
5.2453087e-29
4.6379175e-29
4.0815399e-29
3.5837335e-29
3.1367165e-29
2.7440417e-29
2.3971915e-29
2.0967839e-29
1.8342553e-29
1.6087578e-29
1.4125297e-29
1.2444025e-29
1.0979101e-29
9.7215412e-30
8.6203971e-30
7.6709237e-30
6.8340673e-30
6.1086651e-30
5.4649347e-30
4.9040588e-30
4.4031379e-30
3.9646391e-30
3.5707203e-30
3.2244222e-30
2.9116605e-30
2.6356287e-30
2.3850878e-30
2.1631526e-30
1.9607788e-30
1.7808822e-30
1.616137e-30
1.4692026e-30
1.334114e-30
1.2132517e-30
1.1017377e-30
1.0016749e-30
9.0906815e-31
8.2577259e-31
7.4853688e-31
6.7900886e-31
6.1453972e-31
5.5653614e-31
5.0278248e-31
4.5444482e-31
9.0800228e-05
4.1252286e-05
1.9379713e-05
9.3835011e-06
4.621281e-06
2.3125949e-06
1.1636164e-06
5.8912147e-07
2.9757339e-07
1.5028041e-07
7.5360195e-08
3.7649695e-08
1.8637375e-08
9.1816872e-09
4.4831188e-09
2.1811757e-09
1.0545417e-09
5.0984588e-10
2.4620968e-10
1.196244e-10
5.8513789e-11
2.9053255e-11
1.4680156e-11
7.6151151e-12
4.0705857e-12
2.2596992e-12
1.3064588e-12
7.8999321e-13
4.994149e-13
3.2986348e-13
2.2681344e-13
1.6173253e-13
1.1904357e-13
9.0038733e-14
6.9708862e-14
5.5027441e-14
4.4174435e-14
3.595025e-14
2.9615154e-14
2.4631927e-14
2.0670421e-14
1.7462629e-14
1.4850171e-14
1.2686262e-14
1.0890966e-14
9.3771707e-15
8.1033198e-15
7.0140322e-15
6.0875706e-15
5.2866007e-15
4.6000318e-15
4.0014253e-15
3.4855558e-15
3.032928e-15
2.6415769e-15
2.2966554e-15
1.997989e-15
1.7339877e-15
1.5054161e-15
1.3030627e-15
1.1281317e-15
9.7321351e-16
8.3965838e-16
7.2146583e-16
6.1996338e-16
5.3028071e-16
4.5363125e-16
3.8606822e-16
3.2864804e-16
2.7818761e-16
2.3557353e-16
1.9825775e-16
1.6696236e-16
1.3966733e-16
1.1694574e-16
9.7214427e-17
8.0917765e-17
6.6830871e-17
5.5291036e-17
4.5363734e-17
3.7299906e-17
3.039704e-17
2.4838321e-17
2.0103729e-17
1.6324578e-17
1.3121978e-17
1.0588423e-17
8.4522574e-18
6.7775348e-18
5.3726203e-18
4.2811411e-18
3.3700945e-18
2.6687183e-18
2.0861906e-18
1.641797e-18
1.2745137e-18
9.9686477e-19
7.6850017e-19
5.9742933e-19
4.5739251e-19
3.5343508e-19
2.6873353e-19
2.0641909e-19
1.5587949e-19
1.1902975e-19
8.9277259e-20
6.7776397e-20
5.0492987e-20
3.8113034e-20
2.8204336e-20
2.1168876e-20
1.5561581e-20
1.1614765e-20
8.482126e-21
6.2961067e-21
4.5680469e-21
3.3724443e-21
2.4310504e-21
1.7852189e-21
1.27867e-21
9.3406216e-22
6.647957e-22
4.8312755e-22
3.4170209e-22
2.4706656e-22
1.7366068e-22
1.2493866e-22
8.7279975e-23
6.2484892e-23
4.3386209e-23
3.0910997e-23
2.1334244e-23
1.5127767e-23
1.0378988e-23
7.3252664e-24
4.9962826e-24
3.5100971e-24
2.3801865e-24
1.6646226e-24
1.1222624e-24
7.8136079e-25
5.237464e-25
3.6302135e-25
2.419166e-25
1.6691277e-25
1.1056156e-25
7.5920292e-26
4.9975632e-26
3.4156968e-26
2.2351744e-26
1.5222024e-26
9.9425829e-27
6.8201045e-27
4.5821217e-27
3.376163e-27
2.5987724e-27
2.322012e-27
2.1024999e-27
1.9499251e-27
1.8076462e-27
1.6774018e-27
1.5565972e-27
1.4468517e-27
1.3441129e-27
1.2496039e-27
1.1608186e-27
1.0787814e-27
1.0018048e-27
9.3082328e-28
8.6427535e-28
8.0301044e-28
7.4557281e-28
6.9272676e-28
6.4316957e-28
5.9758834e-28
5.5482233e-28
5.154885e-28
4.7855289e-28
4.4456789e-28
4.1261421e-28
3.8318438e-28
3.5546283e-28
3.2988626e-28
3.0573253e-28
2.833863e-28
2.6221052e-28
2.4254198e-28
2.2382386e-28
2.0635112e-28
1.896472e-28
1.7397476e-28
1.5894286e-28
1.4479474e-28
1.3123213e-28
1.1848962e-28
1.0636001e-28
9.5066908e-29
8.4471901e-29
7.4766537e-29
6.5841286e-29
5.7829397e-29
5.0615807e-29
4.4266939e-29
3.8652359e-29
3.3786583e-29
2.9534429e-29
2.5883291e-29
2.2708512e-29
1.9990693e-29
1.7625186e-29
1.5596559e-29
1.3822199e-29
1.2293652e-29
1.0947667e-29
9.7818154e-30
8.7479858e-30
7.8477322e-30
7.044162e-30
6.3410285e-30
5.7096524e-30
5.1547852e-30
4.6538269e-30
4.211817e-30
3.8107434e-30
3.455543e-30
3.1317341e-30
2.8439483e-30
2.5804631e-30
2.3455071e-30
2.129539e-30
1.9363444e-30
1.7581207e-30
1.5982102e-30
1.4502225e-30
1.3171087e-30
1.1936781e-30
1.0825674e-30
9.795622e-31
8.8691312e-31
8.0108363e-31
7.2392571e-31
0.00016230765
7.3612133e-05
3.4517961e-05
1.6680792e-05
8.1982226e-06
4.0937374e-06
2.0551451e-06
1.0380174e-06
5.2300579e-07
2.6343799e-07
1.3174127e-07
6.5628108e-08
3.2388686e-08
1.5905424e-08
7.7398834e-09
3.7522566e-09
1.8072075e-09
8.7019214e-10
4.1838549e-10
2.0232164e-10
9.8460439e-11
4.8619393e-11
2.4421854e-11
1.258961e-11
6.6861334e-12
3.6875219e-12
2.118477e-12
1.2734711e-12
8.0083667e-13
5.2658776e-13
3.6074998e-13
2.5648438e-13
1.8835432e-13
1.42211e-13
1.0995252e-13
8.670539e-14
6.954897e-14
5.6565445e-14
4.6574815e-14
3.872279e-14
3.2484952e-14
2.743673e-14
2.3327282e-14
1.9924694e-14
1.7102606e-14
1.4723643e-14
1.2722203e-14
1.1011066e-14
9.5559429e-15
8.2980932e-15
7.2200278e-15
6.2801793e-15
5.4703051e-15
4.7597702e-15
4.1454687e-15
3.6040794e-15
3.1353162e-15
2.720979e-15
2.3622612e-15
2.0447008e-15
1.7701836e-15
1.5270786e-15
1.3175023e-15
1.1320369e-15
9.7276394e-16
8.3204017e-16
7.1176878e-16
6.0575617e-16
5.1565949e-16
4.3648385e-16
3.6962009e-16
3.1107e-16
2.6196641e-16
2.1913971e-16
1.83489e-16
1.5253019e-16
1.2696047e-16
1.0485796e-16
8.6751848e-17
7.1175833e-17
5.8523638e-17
4.7693008e-17
3.8971358e-17
3.154277e-17
2.5613273e-17
2.0588388e-17
1.6613237e-17
1.3261592e-17
1.0633951e-17
8.4296401e-18
6.7171091e-18
5.2876771e-18
4.1872179e-18
3.2732321e-18
2.5759788e-18
1.9997114e-18
1.5640803e-18
1.2057763e-18
9.3736628e-19
7.1764858e-19
5.5453944e-19
4.2164274e-19
3.2387142e-19
2.4457482e-19
1.8675759e-19
1.4007596e-19
1.0634112e-19
7.9223456e-20
5.9799318e-20
4.4252577e-20
3.3213946e-20
2.4416103e-20
1.8223552e-20
1.3308444e-20
9.8785817e-21
7.1672576e-21
5.2913582e-21
3.8143123e-21
2.8010035e-21
2.0062291e-21
1.46554e-21
1.0430614e-21
7.5802452e-22
5.3612838e-22
3.8764553e-22
2.7247202e-22
1.9602738e-22
1.3694113e-22
9.8037809e-23
6.8072142e-23
4.8498654e-23
3.3472851e-23
2.3734977e-23
1.6284231e-23
1.1493005e-23
7.8388925e-24
5.5071124e-24
3.7343272e-24
2.6116389e-24
1.7607066e-24
1.2258537e-24
8.216778e-25
5.6951483e-25
3.7951561e-25
2.6184433e-25
1.7343861e-25
1.1909282e-25
7.8391677e-26
5.3576271e-26
3.5057697e-26
2.3873722e-26
1.5592628e-26
1.0694974e-26
7.1848853e-27
5.293423e-27
4.0741466e-27
3.639844e-27
3.2953287e-27
3.0557596e-27
2.832352e-27
2.6278284e-27
2.4381254e-27
2.2657764e-27
2.1044369e-27
1.9560194e-27
1.8166036e-27
1.6877901e-27
1.5669405e-27
1.4555138e-27
1.3510694e-27
1.2549314e-27
1.1648255e-27
1.0819418e-27
1.0042455e-27
9.3280569e-28
8.6581007e-28
8.0421785e-28
7.4641538e-28
6.9326132e-28
6.4332154e-28
5.9736184e-28
5.5411016e-28
5.1424601e-28
4.766427e-28
4.4189925e-28
4.0902022e-28
3.7852997e-28
3.4955495e-28
3.225528e-28
2.9676954e-28
2.7260894e-28
2.4944322e-28
2.2764162e-28
2.0671545e-28
1.8702013e-28
1.6821175e-28
1.5063725e-28
1.3407359e-28
1.188325e-28
1.0475174e-28
9.206128e-29
8.0596043e-29
7.0478941e-29
6.1516118e-29
5.3740445e-29
4.6943284e-29
4.1107608e-29
3.6036622e-29
3.1699018e-29
2.7927839e-29
2.4697085e-29
2.1874529e-29
1.9445388e-29
1.7308506e-29
1.5459084e-29
1.3820374e-29
1.2394255e-29
1.1122045e-29
1.0009344e-29
9.0106462e-30
8.1332664e-30
7.3414096e-30
6.642921e-30
6.0093088e-30
5.4482958e-30
4.9369956e-30
4.4826704e-30
4.0668063e-30
3.6960403e-30
3.3553083e-30
3.0505514e-30
2.76945e-30
2.5172443e-30
2.2838422e-30
2.0738756e-30
1.8791656e-30
1.703883e-30
1.5414167e-30
1.3953281e-30
1.2600459e-30
1.138472e-30
0.00028936327
0.00013101016
6.1318008e-05
2.9573256e-05
1.4504078e-05
7.2265956e-06
3.6194856e-06
1.8236977e-06
9.1652055e-07
4.6041655e-07
2.2959862e-07
1.1403938e-07
5.6105403e-08
2.7462121e-08
1.3317236e-08
6.4324273e-09
3.0859001e-09
1.4796629e-09
7.0819294e-10
3.4079115e-10
1.6496527e-10
8.0990739e-11
4.0429344e-11
2.070375e-11
1.0919299e-11
5.9798998e-12
3.4117844e-12
2.0376686e-12
1.2739819e-12
8.3353811e-13
5.6868876e-13
4.0299719e-13
2.9518999e-13
2.2243329e-13
1.7171718e-13
1.3525393e-13
1.0839419e-13
8.8097639e-14
7.2498229e-14
6.0249659e-14
5.052653e-14
4.2662573e-14
3.6264257e-14
3.0968722e-14
2.6578165e-14
2.2878096e-14
1.9765964e-14
1.7105794e-14
1.4844031e-14
1.2889198e-14
1.121399e-14
9.7537229e-15
8.4955244e-15
7.3917512e-15
6.4375419e-15
5.5966435e-15
4.8685909e-15
4.2251012e-15
3.6680159e-15
3.1748662e-15
2.7485738e-15
2.3710718e-15
2.0456425e-15
1.7576588e-15
1.5103505e-15
1.2918477e-15
1.1051042e-15
9.4050207e-16
8.0061354e-16
6.7768266e-16
5.7386845e-16
4.8296281e-16
4.0672435e-16
3.4023173e-16
2.8488073e-16
2.368145e-16
1.9711541e-16
1.627995e-16
1.3468837e-16
1.1050544e-16
9.0861987e-17
7.4046659e-17
6.0505683e-17
4.8972283e-17
3.9766332e-17
3.1964854e-17
2.5793162e-17
2.0589507e-17
1.6509918e-17
1.3087577e-17
1.0428758e-17
8.2094698e-18
6.5009337e-18
5.0819099e-18
3.9993778e-18
3.1046844e-18
2.4283383e-18
1.8720476e-18
1.4553232e-18
1.1141969e-18
8.6095916e-19
6.5462824e-19
5.0283179e-19
3.7971857e-19
2.899535e-19
2.1747717e-19
1.651016e-19
1.2299964e-19
9.2842383e-20
6.870504e-20
5.1566836e-20
3.7907604e-20
2.8293259e-20
2.066223e-20
1.5337143e-20
1.1127633e-20
8.2151764e-21
5.9219657e-21
4.3487374e-21
3.1147982e-21
2.2753431e-21
1.6194179e-21
1.1768797e-21
8.3237174e-22
6.0184265e-22
4.2302855e-22
3.0434349e-22
2.1260849e-22
1.5220874e-22
1.0568529e-22
7.5296329e-23
5.1967953e-23
3.6849387e-23
2.5281743e-23
1.7843141e-23
1.2169984e-23
8.5498086e-24
5.7975092e-24
4.0545088e-24
2.7334267e-24
1.9030649e-24
1.275587e-24
8.8410948e-25
5.8914459e-25
4.0646693e-25
2.6922536e-25
1.8485961e-25
1.2167758e-25
8.3156239e-26
5.4410759e-26
3.7050793e-26
2.4197434e-26
1.6595814e-26
1.1148166e-26
8.2125938e-27
6.320271e-27
5.6458812e-27
5.1108372e-27
4.7386068e-27
4.3914779e-27
4.0736687e-27
3.7788822e-27
3.5110406e-27
3.2603144e-27
3.0296628e-27
2.8130171e-27
2.6128522e-27
2.4250868e-27
2.2519739e-27
2.0897394e-27
1.9404258e-27
1.8005172e-27
1.6718469e-27
1.551271e-27
1.4404342e-27
1.3365378e-27
1.2410565e-27
1.1514996e-27
1.0691864e-27
9.9190481e-28
9.2083153e-28
8.5400534e-28
7.9247112e-28
7.3449215e-28
6.8099039e-28
6.304305e-28
5.8361994e-28
5.3920781e-28
4.9789738e-28
4.5851484e-28
4.2167571e-28
3.8638923e-28
3.5320995e-28
3.2134937e-28
2.9133543e-28
2.6260003e-28
2.3566566e-28
2.1016685e-28
1.8659485e-28
1.6470585e-28
1.4488654e-28
1.269054e-28
1.1098593e-28
9.6848415e-29
8.4564129e-29
7.381816e-29
6.4590973e-29
5.6576844e-29
4.9726733e-29
4.37776e-29
3.8686422e-29
3.4243865e-29
3.0424508e-29
2.7068242e-29
2.416596e-29
2.1596487e-29
1.9361797e-29
1.7369518e-29