# vtk DataFile Version 3.0
Local 2D buoyant multi-species transport-check field
ASCII
DATASET STRUCTURED_POINTS
DIMENSIONS 121 33 1
ORIGIN -4.5474735e-13 -0.6 0
SPACING 10 0.0375 1
POINT_DATA 3993
SCALARS x_H2 float 1
LOOKUP_TABLE default
0.88874024
0.86886375
0.84654269
0.82170823
0.79433695
0.76445764
0.73215674
0.69758197
0.66094371
0.62251369
0.58262091
0.54164462
0.50000455
0.45814883
0.4165399
0.37563935
0.33589231
0.29771239
0.26146801
0.22747079
0.19596691
0.16713161
0.14106729
0.11780492
0.097308827
0.079484047
0.0641858
0.0512303
0.040406112
0.031485349
0.024234071
0.018421374
0.01382685
0.010246242
0.0074952731
0.0054117799
0.0038563643
0.0027118388
0.001881774
0.0012884448
0.00087044872
0.00058021743
0.00038159849
0.00024762563
0.00015855093
0.00010017135
6.24515e-05
3.8423363e-05
2.3331067e-05
1.3982949e-05
8.272377e-06
4.8314282e-06
2.786019e-06
1.5863849e-06
8.9208094e-07
4.9548276e-07
2.7185706e-07
1.473673e-07
7.8935429e-08
4.1784556e-08
2.1862298e-08
1.1307732e-08
5.7825373e-09
2.9240711e-09
1.4623348e-09
7.2336443e-10
3.5398071e-10
1.7138488e-10
8.2108849e-11
3.8929371e-11
1.8266773e-11
8.4826995e-12
3.8976883e-12
1.7712931e-12
7.9596729e-13
3.5416178e-13
1.5834971e-13
7.8176368e-14
5.3580751e-14
4.4797312e-14
3.8325278e-14
3.2835015e-14
2.8127471e-14
2.4046573e-14
2.051215e-14
1.7462738e-14
1.4838866e-14
1.2586034e-14
1.0655798e-14
9.0052555e-15
7.5965662e-15
6.3965386e-15
5.3761786e-15
4.5102268e-15
3.7767213e-15
3.1566021e-15
2.6333592e-15
2.19272e-15
1.8223709e-15
1.5117113e-15
1.2516344e-15
1.0343342e-15
8.5313419e-16
7.0233629e-16
5.7708856e-16
4.7326853e-16
3.8738142e-16
3.1647108e-16
2.5804257e-16
2.099949e-16
1.705627e-16
1.3826592e-16
1.1186644e-16
9.0330788e-17
7.2798243e-17
5.8553503e-17
4.7003429e-17
3.7657259e-17
3.0109825e-17
2.4027356e-17
1.9135505e-17
0.88874024
0.85561202
0.82769505
0.79859902
0.76689755
0.73275579
0.69641957
0.65823741
0.61860986
0.57796953
0.53676622
0.49545744
0.45450296
0.4142218
0.37494503
0.33700034
0.30068122
0.26624064
0.23388721
0.20378241
0.17603931
0.15072289
0.12785199
0.1074027
0.089312661
0.073486077
0.059798896
0.048104113
0.038237134
0.030021241
0.023273157
0.017808552
0.013447269
0.010017987
0.0073620563
0.0053363343
0.0038149067
0.0026897356
0.0018703398
0.0012827054
0.00086765318
0.00057889614
0.00038099257
0.00024735611
0.00015843472
0.00010012284
6.2431939e-05
3.841578e-05
2.3328264e-05
1.3981979e-05
8.2720762e-06
4.831355e-06
2.7860145e-06
1.5863961e-06
8.9209221e-07
4.9549084e-07
2.7186218e-07
1.4737034e-07
7.8937164e-08
4.178552e-08
2.1862822e-08
1.1308011e-08
5.7826829e-09
2.9241456e-09
1.462372e-09
7.2338254e-10
3.5398922e-10
1.7138869e-10
8.2110436e-11
3.8929953e-11
1.8266929e-11
8.482695e-12
3.8976369e-12
1.771239e-12
7.9592439e-13
3.5413219e-13
1.5833252e-13
7.8169899e-14
5.3577123e-14
4.4793081e-14
3.8320542e-14
3.2829779e-14
2.8121667e-14
2.40402e-14
2.0505234e-14
1.745531e-14
1.4830968e-14
1.257772e-14
1.0647134e-14
8.996317e-15
7.5874374e-15
6.3873104e-15
5.3669464e-15
4.5010873e-15
3.7677696e-15
3.1479287e-15
2.6250473e-15
2.1848424e-15
1.8149887e-15
1.5048717e-15
1.2453705e-15
1.0286643e-15
8.4806232e-16
6.9785352e-16
5.7317427e-16
4.6989237e-16
3.8450537e-16
3.1405168e-16
2.5603308e-16
2.0834741e-16
1.6922962e-16
1.3720139e-16
1.1102765e-16
8.9678768e-17
7.2298313e-17
5.8175485e-17
4.6721599e-17
3.745013e-17
2.9959867e-17
2.3922961e-17
1.9135505e-17
0.88874024
0.84634673
0.81473035
0.78274052
0.74811512
0.71111435
0.67210231
0.63156654
0.59003445
0.54804125
0.50610881
0.46473574
0.42439383
0.38530379
0.3476956
0.31180141
0.27781091
0.24587084
0.2160873
0.18852805
0.1632252
0.14017841
0.11935851
0.10071124
0.084160886
0.069613451
0.056959198
0.046074731
0.036824926
0.029065118
0.022643828
0.017406114
0.013197387
0.0098673954
0.0072740011
0.0052863861
0.0037874243
0.0026750679
0.0018627461
0.0012788916
0.00086579488
0.00057801771
0.00038058979
0.00024717703
0.00015835757
0.00010009068
6.2419013e-05
3.8410794e-05
2.3326439e-05
1.398136e-05
8.2718923e-06
4.8313163e-06
2.7860176e-06
1.5864072e-06
8.9210186e-07
4.9549747e-07
2.718663e-07
1.4737277e-07
7.8938546e-08
4.1786287e-08
2.1863238e-08
1.1308233e-08
5.7827992e-09
2.9242053e-09
1.4624021e-09
7.2339727e-10
3.5399624e-10
1.713919e-10
8.2111826e-11
3.8930503e-11
1.8267112e-11
8.4827296e-12
3.8976205e-12
1.7712113e-12
7.9589969e-13
3.5411427e-13
1.5832191e-13
7.8165994e-14
5.3574822e-14
4.479028e-14
3.8317395e-14
3.2826298e-14
2.8117807e-14
2.403596e-14
2.0500631e-14
1.7450366e-14
1.482571e-14
1.2572186e-14
1.0641366e-14
8.9903659e-15
7.5813595e-15
6.3811663e-15
5.3607996e-15
4.4950023e-15
3.7618098e-15
3.1421545e-15
2.619514e-15
2.1795987e-15
1.8100751e-15
1.5003198e-15
1.2412021e-15
1.0248916e-15
8.4468803e-16
6.9487156e-16
5.7057082e-16
4.6764714e-16
3.8259298e-16
3.1244314e-16
2.546972e-16
2.072523e-16
1.6834358e-16
1.3649389e-16
1.1047021e-16
8.924545e-17
7.1966066e-17
5.7924248e-17
4.6534279e-17
3.7312448e-17
2.9860186e-17
2.3853788e-17
1.9135505e-17
0.88874024
0.8400678
0.80650503
0.77269773
0.73626649
0.69750773
0.65687463
0.61494394
0.57232057
0.52959781
0.48733328
0.44603907
0.40617886
0.36791337
0.33140165
0.29681397
0.26427487
0.2338669
0.20563627
0.17959768
0.15573897
0.13402535
0.11440347
0.096804868
0.081148818
0.067344203
0.055290555
0.044878429
0.035989599
0.028497598
0.022269008
0.017165652
0.013047635
0.0097769071
0.0072209666
0.0052562432
0.0037708118
0.00266619
0.0018581452
0.0012765792
0.00086466772
0.00057748486
0.00038034554
0.00024706852
0.0001583109
0.00010007129
6.2411259e-05
3.8407831e-05
2.3325374e-05
1.3981011e-05
8.271798e-06
4.8313036e-06
2.786026e-06
1.5864178e-06
8.9211003e-07
4.9550284e-07
2.7186957e-07
1.4737468e-07
7.8939628e-08
4.1786886e-08
2.1863564e-08
1.1308407e-08
5.7828905e-09
2.9242524e-09
1.4624259e-09
7.2340909e-10
3.5400194e-10
1.7139458e-10
8.2113027e-11
3.8931012e-11
1.8267307e-11
8.4827907e-12
3.8976294e-12
1.7712034e-12
7.9588878e-13
3.5410527e-13
1.5831635e-13
7.8164049e-14
5.3573545e-14
4.4788594e-14
3.8315489e-14
3.2824186e-14
2.8115463e-14
2.4033384e-14
2.0497834e-14
1.7447361e-14
1.4822514e-14
1.2568821e-14
1.0637859e-14
8.9867466e-15
7.5776625e-15
6.3774287e-15
5.35706e-15
4.4913e-15
3.7581834e-15
3.1386408e-15
2.6161468e-15
2.1764077e-15
1.807085e-15
1.4975499e-15
1.2386657e-15
1.0225962e-15
8.4263524e-16
6.930577e-16
5.6898746e-16
4.6628189e-16
3.8143036e-16
3.1146544e-16
2.5388541e-16
2.0658696e-16
1.6780535e-16
1.360642e-16
1.101317e-16
8.8982349e-17
7.1764353e-17
5.7771728e-17
4.6420564e-17
3.7228868e-17
2.9799677e-17
2.3811988e-17
1.9135505e-17
0.88874024
0.83610146
0.80203535
0.767245
0.72987667
0.69020404
0.64874713
0.60613258
0.56300544
0.51998488
0.47763916
0.43647607
0.39694074
0.35916943
0.32327813
0.28940289
0.25763325
0.22801897
0.20057702
0.17529755
0.15214906
0.1310829
0.112037
0.094938882
0.079707711
0.066255397
0.054486837
0.044299579
0.035583384
0.028220185
0.022084847
0.017046925
0.012973358
0.0097318403
0.0071944576
0.0052411298
0.003762461
0.0026617182
0.0018558242
0.0012754115
0.00086409827
0.00057721571
0.00038022229
0.00024701389
0.0001582875
0.00010006164
6.2407447e-05
3.8406408e-05
2.3324885e-05
1.3980867e-05
8.2717706e-06
4.8313097e-06
2.786038e-06
1.5864278e-06
8.9211687e-07
4.9550713e-07
2.7187213e-07
1.4737616e-07
7.894046e-08
4.1787346e-08
2.1863814e-08
1.1308541e-08
5.7829609e-09
2.9242889e-09
1.4624445e-09
7.2341843e-10
3.5400653e-10
1.7139678e-10
8.2114054e-11
3.8931473e-11
1.8267504e-11
8.4828688e-12
3.8976562e-12
1.7712097e-12
7.9588807e-13
3.5410293e-13
1.5831457e-13
7.8163567e-14
5.357304e-14
4.4787758e-14
3.8314529e-14
3.282312e-14
2.8114277e-14
2.403208e-14
2.0496417e-14
1.7445838e-14
1.4820893e-14
1.2567113e-14
1.0636078e-14
8.9849081e-15
7.5757839e-15
6.3755287e-15
5.3551584e-15
4.4894168e-15
3.7563384e-15
3.1368527e-15
2.6144328e-15
2.174783e-15
1.8055625e-15
1.4961393e-15
1.2373741e-15
1.0214273e-15
8.4159e-16
6.9213428e-16
5.6818158e-16
4.6558724e-16
3.8083902e-16
3.1096837e-16
2.5347288e-16
2.0624899e-16
1.6753207e-16
1.358461e-16
1.0995995e-16
8.8848906e-17
7.1662077e-17
5.7694415e-17
4.6362935e-17
3.7186518e-17
2.9769024e-17
2.3790979e-17
1.9135505e-17
0.88874024
0.83394234
0.80047817
0.76533907
0.72769285
0.68773874
0.64604592
0.60326062
0.56004069
0.51700887
0.47472816
0.43369267
0.39432605
0.35676805
0.32111576
0.2874927
0.25597622
0.22660594
0.19939119
0.17431699
0.15134918
0.13043855
0.11152416
0.09453568
0.079394935
0.066016489
0.054307634
0.044167971
0.035489028
0.028154316
0.022040171
0.017017535
0.012954628
0.0097202877
0.0071875645
0.0052371522
0.0037602415
0.0026605204
0.0018551991
0.0012750959
0.00086394427
0.00057714308
0.00038018924
0.00024699942
0.00015828145
0.00010005924
6.2406569e-05
3.8406129e-05
2.3324823e-05
1.3980874e-05
8.271792e-06
4.8313292e-06
2.7860521e-06
1.586437e-06
8.9212256e-07
4.9551052e-07
2.718741e-07
1.4737728e-07
7.8941088e-08
4.1787692e-08
2.1864002e-08
1.1308642e-08
5.7830144e-09
2.9243168e-09
1.4624589e-09
7.2342572e-10
3.5401018e-10
1.7139858e-10
8.2114926e-11
3.8931888e-11
1.8267697e-11
8.4829568e-12
3.897695e-12
1.7712262e-12
7.958947e-13
3.5410543e-13
1.5831557e-13
7.816415e-14
5.3573105e-14
4.4787556e-14
3.8314275e-14
3.2822834e-14
2.8113956e-14
2.4031725e-14
2.0496029e-14
1.7445419e-14
1.4820447e-14
1.2566641e-14
1.0635585e-14
8.9843982e-15
7.5752619e-15
6.3749999e-15
5.3546283e-15
4.488891e-15
3.7558224e-15
3.136352e-15
2.6139522e-15
2.1743271e-15
1.8051347e-15
1.4957428e-15
1.2370108e-15
1.0210985e-15
8.4129605e-16
6.9187471e-16
5.6795525e-16
4.6539237e-16
3.8067338e-16
3.1082938e-16
2.5335776e-16
2.0615485e-16
1.6745607e-16
1.3578556e-16
1.0991236e-16
8.8811995e-17
7.1633833e-17
5.7673096e-17
4.6347064e-17
3.7174867e-17
2.9760601e-17
2.378539e-17
1.9135505e-17
0.88874024
0.83318993
0.80111973
0.76610312
0.72866648
0.68889346
0.6473881
0.60479345
0.56176061
0.51890122
0.47676402
0.43582585
0.39649087
0.35892102
0.32321458
0.2894987
0.25785514
0.22832947
0.2009382
0.17567433
0.15251198
0.13141001
0.11231476
0.09516183
0.079877162
0.06637745
0.054570167
0.044353481
0.035616376
0.028239245
0.022095195
0.017052166
0.012975802
0.0097328648
0.0071948226
0.0052412221
0.0037624593
0.0026616951
0.0018558041
0.001275399
0.00086409201
0.00057721324
0.00038022174
0.00024701414
0.00015828799
0.00010006211
6.240782e-05
3.8406679e-05
2.332507e-05
1.3980988e-05
8.2718479e-06
4.8313578e-06
2.7860673e-06
1.5864454e-06
8.9212728e-07
4.9551318e-07
2.718756e-07
1.4737812e-07
7.8941556e-08
4.1787949e-08
2.1864142e-08
1.1308717e-08
5.7830544e-09
2.9243378e-09
1.4624699e-09
7.2343137e-10
3.5401307e-10
1.7140004e-10
8.2115665e-11
3.8932259e-11
1.8267883e-11
8.4830497e-12
3.8977415e-12
1.7712495e-12
7.9590644e-13
3.5411136e-13
1.5831853e-13
7.8165486e-14
5.3573578e-14
4.4787814e-14
3.8314534e-14
3.2823115e-14
2.8114263e-14
2.4032059e-14
2.049639e-14
1.7445804e-14
1.4820854e-14
1.2567069e-14
1.0636029e-14
8.9848549e-15
7.575727e-15
6.3754688e-15
5.3550961e-15
4.4893529e-15
3.7562738e-15
3.1367883e-15
2.6143695e-15
2.1747217e-15
1.8055039e-15
1.4960843e-15
1.2373233e-15
1.0213812e-15
8.4154885e-16
6.9209821e-16
5.6815056e-16
4.6556106e-16
3.8081734e-16
3.1095076e-16
2.5345884e-16
2.0623792e-16
1.6752345e-16
1.3583951e-16
1.0995497e-16
8.8845205e-17
7.1659359e-17
5.7692444e-17
4.6361521e-17
3.7185513e-17
2.9768322e-17
2.3790957e-17
1.9135505e-17
0.88874024
0.83352006
0.80336621
0.76881322
0.73193582
0.69267365
0.65165368
0.60949898
0.56684042
0.52426924
0.48231538
0.44143857
0.4020277
0.3642771
0.32830193
0.29424442
0.26220247
0.23223866
0.20438679
0.17865661
0.15503783
0.13350306
0.11400991
0.096502338
0.080911281
0.067155081
0.055139785
0.04475968
0.035898209
0.0284294
0.022219895
0.017131609
0.01302495
0.0097623828
0.0072120296
0.0052509567
0.003767804
0.0026645433
0.0018572774
0.001276139
0.000864453
0.00057738435
0.0003803006
0.00024704951
0.00015830344
0.0001000687
6.2410575e-05
3.8407812e-05
2.3325533e-05
1.3981178e-05
8.2719275e-06
4.8313924e-06
2.7860832e-06
1.5864531e-06
8.921312e-07
4.9551527e-07
2.7187674e-07
1.4737874e-07
7.8941898e-08
4.1788137e-08
2.1864244e-08
1.1308772e-08
5.7830838e-09
2.9243535e-09
1.4624781e-09
7.2343571e-10
3.5401535e-10
1.7140124e-10
8.2116294e-11
3.8932592e-11
1.826806e-11
8.4831443e-12
3.8977927e-12
1.7712774e-12
7.9592164e-13
3.5411963e-13
1.5832285e-13
7.8167345e-14
5.3574337e-14
4.4788396e-14
3.8315155e-14
3.2823796e-14
2.8115013e-14
2.403288e-14
2.0497279e-14
1.7446758e-14
1.4821866e-14
1.2568132e-14
1.0637136e-14
8.9859953e-15
7.5768903e-15
6.3766435e-15
5.3562701e-15
4.490514e-15
3.7574098e-15
3.137888e-15
2.6154224e-15
2.1757187e-15
1.8064375e-15
1.4969487e-15
1.2381144e-15
1.0220969e-15
8.4218891e-16
6.9266385e-16
5.686445e-16
4.6598719e-16
3.811805e-16
3.1125644e-16
2.5371293e-16
2.0644639e-16
1.6769226e-16
1.3597442e-16
1.1006137e-16
8.8927991e-17
7.1722897e-17
5.7740535e-17
4.6397409e-17
3.7211913e-17
2.9787448e-17
2.3804387e-17
1.9135505e-17
0.88874024
0.83466995
0.80673348
0.77288385
0.73680702
0.69828394
0.65795404
0.61640856
0.57424896
0.53204035
0.49029199
0.44944826
0.40988764
0.37184009
0.3354491
0.30087944
0.26825307
0.23765703
0.20914919
0.18276208
0.15850602
0.13637138
0.11632999
0.098335935
0.082325901
0.068219597
0.055920544
0.045317418
0.036286002
0.028691666
0.022392312
0.01724173
0.013093247
0.0098034977
0.0072360487
0.0052645713
0.0037752913
0.0026685386
0.0018593462
0.0012771788
0.00086496033
0.00057762476
0.00038041128
0.00024709904
0.00015832501
0.00010007785
6.2414361e-05
3.8409345e-05
2.3326143e-05
1.3981419e-05
8.2720227e-06
4.8314307e-06
2.7860992e-06
1.5864602e-06
8.9213451e-07
4.9551691e-07
2.7187759e-07
1.473792e-07
7.8942144e-08
4.1788271e-08
2.1864317e-08
1.1308812e-08
5.7831053e-09
2.9243651e-09
1.4624843e-09
7.2343907e-10
3.5401716e-10
1.7140222e-10
8.2116835e-11
3.8932891e-11
1.8268227e-11
8.4832389e-12
3.8978464e-12
1.771308e-12
7.959391e-13
3.5412948e-13
1.5832809e-13
7.8169558e-14
5.3575293e-14
4.47892e-14
3.8316024e-14
3.2824751e-14
2.8116067e-14
2.4034035e-14
2.049853e-14
1.7448099e-14
1.4823291e-14
1.2569631e-14
1.0638696e-14
8.9876038e-15
7.5785319e-15
6.3783018e-15
5.357928e-15
4.4921542e-15
3.7590154e-15
3.1394427e-15
2.6169114e-15
2.1771291e-15
1.8077585e-15
1.4981719e-15
1.2392342e-15
1.0231102e-15
8.4309502e-16
6.9346455e-16
5.6934358e-16
4.6659017e-16
3.8169423e-16
3.116887e-16
2.5407208e-16
2.0674095e-16
1.6793069e-16
1.361649e-16
1.1021154e-16
8.904479e-17
7.1812507e-17
5.7808336e-17
4.6447992e-17
3.7249113e-17
2.9814392e-17
2.3823204e-17
1.9135505e-17
0.88874024
0.83642844
0.81083566
0.77785207
0.7427336
0.70510177
0.66559892
0.62477649
0.58320039
0.54140607
0.49988141
0.45905752
0.4193067
0.38089292
0.34399529
0.30880538
0.27547419
0.24411804
0.21482345
0.18764992
0.16263217
0.13978155
0.11908662
0.10051333
0.084004967
0.069482659
0.056846718
0.045978986
0.036746023
0.029002847
0.022596958
0.017372494
0.013174388
0.0098523721
0.0072646169
0.0052807733
0.0037842061
0.0026732976
0.0018618114
0.001278418
0.00086556509
0.00057791131
0.00038054315
0.00024715802
0.00015835065
0.00010008869
6.2418831e-05
3.8411143e-05
2.3326851e-05
1.3981693e-05
8.2721279e-06
4.8314713e-06
2.7861151e-06
1.5864667e-06
8.9213732e-07
4.9551821e-07
2.7187823e-07
1.4737953e-07
7.8942321e-08
4.1788366e-08
2.1864369e-08
1.130884e-08
5.7831208e-09
2.9243736e-09
1.462489e-09
7.2344167e-10
3.5401862e-10
1.7140305e-10
8.2117307e-11
3.8933164e-11
1.8268387e-11
8.4833323e-12
3.8979014e-12
1.7713403e-12
7.9595801e-13
3.5414036e-13
1.5833395e-13
7.8172015e-14
5.3576383e-14
4.4790151e-14
3.8317056e-14
3.2825886e-14
2.8117321e-14
2.4035409e-14
2.050002e-14
1.7449697e-14
1.4824989e-14
1.2571416e-14
1.0640556e-14
8.9895213e-15
7.5804892e-15
6.3802795e-15
5.3599057e-15
4.4941113e-15
3.7609314e-15
3.1412984e-15
2.6186891e-15
2.1788133e-15
1.8093362e-15
1.4996331e-15
1.240572e-15
1.0243208e-15
8.4417763e-16
6.9442124e-16
5.7017884e-16
4.6731056e-16
3.8230791e-16
3.12205e-16
2.5450098e-16
2.0709265e-16
1.6821534e-16
1.3639227e-16
1.1039075e-16
8.9184159e-17
7.1919414e-17
5.7889212e-17
4.6508318e-17
3.7293472e-17
2.9846518e-17
2.384561e-17
1.9135505e-17
0.88874024
0.83862869
0.81537242
0.78336069
0.74929534
0.71265097
0.67406394
0.63404097
0.59310847
0.5517699
0.51049128
0.4696919
0.42974102
0.39093183
0.35348258
0.31761335
0.28350685
0.25131152
0.22114561
0.19309875
0.16723319
0.14358418
0.1221596
0.1029392
0.085874121
0.070887331
0.05787562
0.046713124
0.037255969
0.029347472
0.022823412
0.017517095
0.013264069
0.0099063702
0.0072961723
0.005298667
0.0037940512
0.0026785534
0.001864534
0.0012797868
0.00086623305
0.00057822779
0.00038068879
0.00024722312
0.00015837894
0.00010010065
6.2423747e-05
3.8413113e-05
2.3327622e-05
1.3981989e-05
8.2722394e-06
4.831513e-06
2.7861308e-06
1.5864728e-06
8.9213978e-07
4.9551927e-07
2.7187872e-07
1.4737977e-07
7.8942447e-08
4.1788434e-08
2.1864406e-08
1.130886e-08
5.7831321e-09
2.9243799e-09
1.4624926e-09
7.2344374e-10
3.5401982e-10
1.7140376e-10
8.2117728e-11
3.8933417e-11
1.8268539e-11
8.4834246e-12
3.8979571e-12
1.7713737e-12
7.9597786e-13
3.5415193e-13
1.5834022e-13
7.8174652e-14
5.3577568e-14
4.4791196e-14
3.8318191e-14
3.2827135e-14
2.8118701e-14
2.4036922e-14
2.050166e-14
1.7451457e-14
1.4826859e-14
1.2573383e-14
1.0642604e-14
8.9916342e-15
7.5826464e-15
6.3824594e-15
5.362086e-15
4.4962691e-15
3.7630444e-15
3.1433452e-15
2.6206502e-15
2.1806714e-15
1.8110771e-15
1.5012458e-15
1.2420486e-15
1.0256572e-15
8.4537289e-16
6.9547755e-16
5.7110113e-16
4.6810603e-16
3.8298555e-16
3.1277508e-16
2.5497452e-16
2.0748094e-16
1.6852959e-16
1.3664328e-16
1.1058859e-16
8.9337992e-17
7.2037406e-17
5.7978464e-17
4.6574885e-17
3.7342415e-17
2.9881961e-17
2.3870344e-17
1.9135505e-17
0.88874024
0.84114209
0.82011557
0.78914133
0.75617736
0.72057628
0.68296012
0.64378836
0.60354548
0.56270131
0.5216992
0.48094705
0.4408127
0.40161217
0.36360304
0.3270335
0.29211883
0.259041
0.22795194
0.19897392
0.17219959
0.1476911
0.12547852
0.10555787
0.087889812
0.072400022
0.058981804
0.047500974
0.037802213
0.029715969
0.023065153
0.017671233
0.013359546
0.0099637997
0.0073297061
0.0053176712
0.0038045029
0.0026841315
0.0018674231
0.0012812392
0.00086694185
0.00057856365
0.00038084334
0.00024729221
0.00015840895
0.00010011332
6.2428954e-05
3.8415196e-05
2.3328434e-05
1.3982298e-05
8.2723549e-06
4.8315556e-06
2.7861464e-06
1.5864785e-06
8.9214199e-07
4.9552016e-07
2.7187911e-07
1.4737995e-07
7.8942537e-08
4.1788481e-08
2.1864432e-08
1.1308875e-08
5.7831404e-09
2.9243847e-09
1.4624955e-09
7.2344543e-10
3.5402084e-10
1.7140438e-10
8.2118114e-11
3.8933656e-11
1.8268688e-11
8.4835163e-12
3.8980133e-12
1.771408e-12
7.9599843e-13
3.5416401e-13
1.5834682e-13
7.8177449e-14
5.357883e-14
4.4792299e-14
3.8319388e-14
3.2828453e-14
2.8120156e-14
2.4038518e-14
2.0503391e-14
1.7453315e-14
1.4828832e-14
1.257546e-14
1.0644768e-14
8.9938653e-15
7.5849245e-15
6.3847619e-15
5.3643892e-15
4.4985489e-15
3.7652771e-15
3.1455083e-15
2.622723e-15
2.1826358e-15
1.8129179e-15
1.5029511e-15
1.2436104e-15
1.0270709e-15
8.4663746e-16
6.9659526e-16
5.7207712e-16
4.689479e-16
3.8370277e-16
3.1337847e-16
2.5547575e-16
2.0789196e-16
1.6886225e-16
1.36909e-16
1.1079802e-16
8.9500838e-17
7.2162305e-17
5.8072935e-17
4.6645341e-17
3.7394213e-17
2.9919471e-17
2.3896574e-17
1.9135505e-17
0.88874024
0.8438742
0.82489492
0.79499794
0.76315041
0.72861984
0.6920063
0.65372149
0.61420667
0.5738967
0.53321105
0.49254534
0.45226609
0.41270524
0.37415699
0.33689561
0.30116828
0.26719073
0.23514976
0.20520231
0.17747421
0.15205783
0.12900876
0.10834227
0.090030869
0.074004225
0.060152534
0.048332888
0.038377626
0.030103223
0.023318632
0.017832528
0.013459279
0.010023701
0.0073646418
0.0053374518
0.0038153745
0.0026899312
0.0018704264
0.0012827489
0.00086767863
0.0005789128
0.00038100404
0.00024736406
0.00015844017
0.00010012651
6.2434368e-05
3.841736e-05
2.3329276e-05
1.3982618e-05
8.2724735e-06
4.8315987e-06
2.786162e-06
1.5864841e-06
8.9214402e-07
4.9552093e-07
2.7187942e-07
1.4738009e-07
7.8942603e-08
4.1788515e-08
2.186445e-08
1.1308885e-08
5.7831466e-09
2.9243885e-09
1.4624978e-09
7.2344686e-10
3.5402175e-10
1.7140496e-10
8.2118479e-11
3.8933888e-11
1.8268834e-11
8.4836082e-12
3.8980705e-12
1.7714431e-12
7.960197e-13
3.5417658e-13
1.5835374e-13
7.8180425e-14
5.3580169e-14
4.479344e-14
3.8320622e-14
3.282981e-14
2.8121656e-14
2.4040162e-14
2.0505174e-14
1.7455229e-14
1.4830866e-14
1.25776e-14
1.0646998e-14
8.9961658e-15
7.5872737e-15
6.3871366e-15
5.3667648e-15
4.5009007e-15
3.7675808e-15
3.1477404e-15
2.6248624e-15
2.1846636e-15
1.8148184e-15
1.5047122e-15
1.2452236e-15
1.0285313e-15
8.4794408e-16
6.9775034e-16
5.7308593e-16
4.6981821e-16
3.8444433e-16
3.1400243e-16
2.5599413e-16
2.0831708e-16
1.6920637e-16
1.3718389e-16
1.110147e-16
8.9669331e-17
7.2291538e-17
5.8170684e-17
4.6718239e-17
3.7447803e-17
2.9958279e-17
2.3923797e-17
1.9135505e-17
0.88874024
0.84676484
0.82958298
0.80079113
0.77005237
0.7365998
0.70100479
0.66363238
0.62488019
0.58514711
0.54482698
0.50430114
0.46393333
0.42406457
0.38502071
0.34709875
0.31057578
0.27570055
0.2426952
0.2117531
0.18303607
0.15667026
0.1327407
0.11128557
0.092292069
0.075695724
0.061384315
0.049205984
0.038979898
0.030507456
0.023582542
0.018000064
0.013562658
0.010085684
0.0074007411
0.0053578698
0.0038265882
0.0026959107
0.0018735222
0.0012843051
0.00086843826
0.00057927291
0.00038116985
0.00024743823
0.0001584724
0.00010014013
6.2439962e-05
3.8419595e-05
2.3330145e-05
1.3982947e-05
8.2725952e-06
4.8316428e-06
2.7861776e-06
1.5864896e-06
8.9214596e-07
4.9552163e-07
2.7187968e-07
1.473802e-07
7.8942652e-08
4.178854e-08
2.1864464e-08
1.1308894e-08
5.7831515e-09
2.9243916e-09
1.4624997e-09
7.2344814e-10
3.5402258e-10
1.714055e-10
8.2118834e-11
3.8934118e-11
1.8268982e-11
8.483702e-12
3.8981294e-12
1.7714795e-12
7.9604187e-13
3.5418976e-13
1.5836104e-13
7.8183641e-14
5.3581603e-14
4.479461e-14
3.8321878e-14
3.2831192e-14
2.8123181e-14
2.4041835e-14
2.0506989e-14
1.7457177e-14
1.4832938e-14
1.257978e-14
1.0649269e-14
8.998509e-15
7.5896667e-15
6.3895558e-15
5.3691854e-15
4.5032975e-15
3.7699287e-15
3.150016e-15
2.6270437e-15
2.1867316e-15
1.816757e-15
1.506509e-15
1.2468697e-15
1.030022e-15
8.492781e-16
6.9892993e-16
5.741164e-16
4.7070741e-16
3.8520215e-16
3.1464022e-16
2.5652408e-16
2.087518e-16
1.6955833e-16
1.374651e-16
1.1123638e-16
8.9841733e-17
7.242378e-17
5.8270714e-17
4.6792839e-17
3.7502645e-17
2.9997996e-17
2.3951766e-17
1.9135505e-17
0.88874024
0.84979918
0.83407718
0.80642333
0.77677129
0.7443912
0.70982003
0.67337886
0.63542208
0.59631175
0.55641412
0.51609327
0.47570725
0.43559991
0.3961217
0.35758809
0.32030301
0.28454659
0.25057622
0.21862307
0.18888783
0.16153433
0.13668146
0.1143946
0.094679181
0.077478917
0.062680231
0.050122274
0.039610259
0.030929378
0.02385727
0.018174047
0.013669788
0.010149804
0.0074380338
0.0053789419
0.0038381538
0.0027020761
0.0018767141
0.00128591
0.00086922202
0.00057964467
0.00038134115
0.00024751492
0.00015850577
0.00010015423
6.244576e-05
3.8421912e-05
2.3331047e-05
1.3983288e-05
8.2727212e-06
4.8316881e-06
2.7861936e-06
1.5864952e-06
8.9214787e-07
4.9552229e-07
2.7187992e-07
1.4738029e-07
7.8942692e-08
4.178856e-08
2.1864475e-08
1.13089e-08
5.7831556e-09
2.9243942e-09
1.4625015e-09
7.2344934e-10
3.5402339e-10
1.7140604e-10
8.2119192e-11
3.8934353e-11
1.8269134e-11
8.4837999e-12
3.8981912e-12
1.771518e-12
7.9606538e-13
3.5420378e-13
1.5836889e-13
7.8187204e-14
5.3583169e-14
4.4795808e-14
3.8323152e-14
3.2832593e-14
2.8124726e-14
2.404353e-14
2.0508828e-14
1.7459152e-14
1.4835037e-14
1.258199e-14
1.0651572e-14
9.0008849e-15
7.5920937e-15
6.3920097e-15
5.3716412e-15
4.5057294e-15
3.7723116e-15
3.1523258e-15
2.6292584e-15
2.1888317e-15
1.8187263e-15
1.5083346e-15
1.2485428e-15
1.0315375e-15
8.5063475e-16
7.001299e-16
5.7516499e-16
4.7161254e-16
3.8597379e-16
3.1528981e-16
2.5706401e-16
2.0919481e-16
1.699171e-16
1.3775182e-16
1.1146247e-16
9.0017592e-17
7.2558693e-17
5.8372775e-17
4.6868959e-17
3.7558607e-17
3.0038527e-17
2.3980428e-17
1.9135505e-17
0.88874024
0.85304763
0.83827654
0.81182418
0.78322934
0.7519086
0.71835981
0.68286461
0.64573521
0.60729635
0.56788454
0.52784313
0.48752011
0.44725676
0.4074192
0.36833672
0.33033596
0.29372607
0.25879897
0.22582477
0.19504581
0.16666774
0.14084824
0.11768473
0.097205008
0.079363883
0.064047843
0.051087194
0.040272478
0.031371527
0.024144483
0.018355542
0.013781338
0.01021647
0.0074767659
0.0054008125
0.0038501541
0.0027084735
0.0018800274
0.001287577
0.00087003677
0.00058003154
0.00038151962
0.00024759492
0.00015854061
0.00010016898
6.2451832e-05
3.8424342e-05
2.3331993e-05
1.3983647e-05
8.2728534e-06
4.8317357e-06
2.7862103e-06
1.5865009e-06
8.9214981e-07
4.9552295e-07
2.7188015e-07
1.4738037e-07
7.8942725e-08
4.1788575e-08
2.1864483e-08
1.1308905e-08
5.7831592e-09
2.9243967e-09
1.4625032e-09
7.2345053e-10
3.540242e-10
1.714066e-10
8.2119566e-11
3.8934601e-11
1.8269297e-11
8.4839047e-12
3.8982577e-12
1.7715595e-12
7.9609087e-13
3.5421906e-13
1.5837752e-13
7.8191274e-14
5.3584926e-14
4.4797043e-14
3.8324446e-14
3.2834014e-14
2.8126293e-14
2.4045248e-14
2.0510693e-14
1.7461155e-14
1.4837167e-14
1.2584232e-14
1.0653909e-14
9.0032971e-15
7.5945582e-15
6.3945022e-15
5.374136e-15
4.5082005e-15
3.7747336e-15
3.1546741e-15
2.6315106e-15
2.190968e-15
1.82073e-15
1.5101929e-15
1.2502464e-15
1.0330812e-15
8.5201712e-16
7.0135309e-16
5.7623429e-16
4.725359e-16
3.8676127e-16
3.15953e-16
2.5761543e-16
2.0964742e-16
1.7028378e-16
1.3804496e-16
1.1169367e-16
9.0197476e-17
7.2696723e-17
5.8477213e-17
4.6946863e-17
3.7615885e-17
3.0080018e-17
2.4009885e-17
1.9135505e-17
0.88874024
0.8563915
0.84213237
0.8169403
0.7893672
0.75909004
0.72655844
0.69202164
0.65575146
0.61803513
0.57917731
0.53949683
0.49932654
0.45899984
0.41888849
0.37933074
0.340671
0.30324445
0.2673763
0.23337637
0.20153126
0.17209274
0.14526255
0.12117536
0.099886004
0.081363883
0.06549741
0.052108382
0.040972054
0.031837739
0.024446785
0.018546272
0.013898417
0.01028638
0.0075173627
0.0054237341
0.0038627346
0.0027151845
0.0018835063
0.0012893294
0.00087089446
0.00058043942
0.0003817081
0.00024767955
0.00015857754
0.00010018465
6.2458291e-05
3.8426931e-05
2.3333002e-05
1.398403e-05
8.2729947e-06
4.8317865e-06
2.7862281e-06
1.586507e-06
8.9215185e-07
4.9552362e-07
2.7188037e-07
1.4738045e-07
7.8942754e-08
4.1788589e-08
2.1864491e-08
1.130891e-08
5.7831626e-09
2.9243991e-09
1.462505e-09
7.2345176e-10
3.5402506e-10
1.7140719e-10
8.211997e-11
3.8934872e-11
1.8269475e-11
8.4840202e-12
3.8983314e-12
1.7716057e-12
7.9611926e-13
3.5423614e-13
1.583873e-13
7.819607e-14
5.3586956e-14
4.4798329e-14
3.8325768e-14
3.2835464e-14
2.8127888e-14
2.4046998e-14
2.0512594e-14
1.7463198e-14
1.4839339e-14
1.258652e-14
1.0656295e-14
9.0057596e-15
7.5970746e-15
6.3970478e-15
5.3766847e-15
4.510726e-15
3.7772095e-15
3.1570755e-15
2.6338145e-15
2.1931541e-15
1.8227813e-15
1.5120959e-15
1.2519918e-15
1.0346634e-15
8.5343467e-16
7.0260799e-16
5.7733182e-16
4.7348407e-16
3.8757029e-16
3.1663463e-16
2.5818244e-16
2.1011302e-16
1.7066114e-16
1.3834675e-16
1.1193179e-16
9.0382795e-17
7.2838962e-17
5.8584861e-17
4.7027178e-17
3.7674947e-17
3.012281e-17
2.404035e-17
1.9135505e-17
0.88874024
0.85971304
0.84571136
0.82177
0.79519294
0.76593568
0.73440809
0.70083292
0.6654447
0.62849421
0.5902534
0.55101396
0.51108886
0.47079885
0.43050712
0.390556
0.35130226
0.31310362
0.27631692
0.24129196
0.20836201
0.1778292
0.14994476
0.12488574
0.10273916
0.083493011
0.067040247
0.053194563
0.041715474
0.032332685
0.024767435
0.018748447
0.014022479
0.010360461
0.0075604001
0.0054480527
0.0038760971
0.0027223227
0.0018872129
0.0012912
0.00087181191
0.00058087668
0.00038191061
0.00024777069
0.00015861741
0.0001002016
6.2465295e-05
3.8429746e-05
2.3334102e-05
1.3984447e-05
8.2731491e-06
4.831842e-06
2.7862475e-06
1.5865136e-06
8.9215405e-07
4.9552434e-07
2.718806e-07
1.4738053e-07
7.8942782e-08
4.1788601e-08
2.1864498e-08
1.1308915e-08
5.783166e-09
2.9244016e-09
1.4625068e-09
7.2345308e-10
3.5402601e-10
1.7140785e-10
8.2120422e-11
3.8935176e-11
1.8269677e-11
8.4841512e-12
3.8984151e-12
1.7716583e-12
7.9615176e-13
3.5425577e-13
1.5839868e-13
7.820189e-14
5.3589368e-14
4.4799689e-14
3.832713e-14
3.2836954e-14
2.8129525e-14
2.4048795e-14
2.0514547e-14
1.7465297e-14
1.4841573e-14
1.2588873e-14
1.0658749e-14
9.0082935e-15
7.5996649e-15
6.399669e-15
5.37931e-15
4.513328e-15
3.7797614e-15
3.1595516e-15
2.636191e-15
2.1954101e-15
1.8248991e-15
1.5140616e-15
1.2537955e-15
1.0362994e-15
8.5490116e-16
7.0390697e-16
5.7846859e-16
4.7446678e-16
3.8840931e-16
3.17342e-16
2.5877124e-16
2.1059679e-16
1.7105339e-16
1.3866059e-16
1.1217951e-16
9.057566e-17
7.2987044e-17
5.8696964e-17
4.711084e-17
3.7736486e-17
3.016741e-17
2.4072128e-17
1.9135505e-17
0.88874024
0.86291989
0.84906423
0.82632424
0.80072432
0.77246232
0.74192278
0.70930752
0.67481749
0.6386685
0.60109933
0.56237231
0.52277631
0.48261508
0.44223324
0.40197193
0.36219458
0.32327692
0.28560441
0.24956575
0.21554183
0.18388778
0.15490852
0.12883063
0.10577891
0.085763993
0.068685702
0.054351858
0.042506275
0.032858091
0.025107047
0.018962091
0.014153302
0.010438435
0.0076056304
0.0054735818
0.0038901145
0.0027298084
0.0018911
0.0012931624
0.00087277492
0.00058133602
0.00038212356
0.00024786665
0.00015865943
0.00010021948
6.2472696e-05
3.8432723e-05
2.3335266e-05
1.398489e-05
8.2733128e-06
4.8319008e-06
2.7862681e-06
1.5865206e-06
8.9215634e-07
4.9552507e-07
2.7188083e-07
1.473806e-07
7.8942806e-08
4.1788611e-08
2.1864503e-08
1.1308919e-08
5.7831691e-09
2.9244041e-09
1.4625087e-09
7.2345445e-10
3.54027e-10
1.7140855e-10
8.2120904e-11
3.8935503e-11
1.8269894e-11
8.4842931e-12
3.8985061e-12
1.7717156e-12
7.961872e-13
3.5427724e-13
1.5841121e-13
7.8208443e-14
5.3592056e-14
4.4801102e-14
3.8328522e-14
3.2838476e-14
2.8131194e-14
2.4050626e-14
2.0516538e-14
1.7467438e-14
1.4843851e-14
1.2591274e-14
1.0661253e-14
9.0108802e-15
7.6023098e-15
6.402346e-15
5.3819918e-15
4.5159868e-15
3.7823696e-15
3.1620829e-15
2.6386213e-15
2.1977178e-15
1.8270661e-15
1.5160737e-15