# vtk DataFile Version 3.0
Local 2D buoyant multi-species CFD field
ASCII
DATASET STRUCTURED_POINTS
DIMENSIONS 101 25 1
ORIGIN -4.5474735e-13 -0.6 0
SPACING 12 0.05 1
POINT_DATA 2525
SCALARS x_H2 float 1
LOOKUP_TABLE default
0.88874024
0.86476088
0.83701679
0.80555854
0.77056771
0.73215674
0.69054714
0.64584819
0.59872536
0.54989246
0.50000455
0.44977266
0.40004548
0.35165439
0.30525829
0.26146801
0.22079642
0.18399564
0.15119269
0.12230658
0.097308827
0.076061109
0.058634144
0.044512927
0.033170518
0.024234071
0.017332857
0.012239731
0.0085116205
0.0057948502
0.0038563643
0.0025034155
0.0016094195
0.0010204481
0.00063203122
0.00038159849
0.00022395021
0.00013080463
7.5578448e-05
4.2582766e-05
2.3331067e-05
1.2381469e-05
6.5816235e-06
3.4760172e-06
1.7876847e-06
8.9208094e-07
4.296134e-07
2.0876709e-07
1.0132305e-07
4.7831132e-08
2.1862298e-08
9.6068856e-09
4.2925046e-09
1.9265981e-09
8.4015408e-10
3.5398071e-10
1.4279968e-10
5.9019735e-11
2.4646445e-11
9.9862273e-12
3.8976883e-12
1.4475158e-12
5.5374955e-13
2.1655318e-13
8.9407283e-14
5.3580751e-14
4.335019e-14
3.5974537e-14
2.9933289e-14
2.4830869e-14
2.051215e-14
1.6878054e-14
1.3880181e-14
1.139456e-14
9.3209267e-15
7.5965662e-15
6.1672889e-15
5.0059475e-15
4.0564927e-15
3.2747947e-15
2.6333592e-15
2.1088351e-15
1.6889206e-15
1.3504784e-15
1.0756025e-15
8.5313419e-16
6.7373247e-16
5.322752e-16
4.1990443e-16
3.298887e-16
2.5804257e-16
2.0091455e-16
1.5655416e-16
1.2182614e-16
9.439061e-17
7.2798243e-17
5.5871511e-17
4.2929653e-17
3.2946474e-17
2.5169652e-17
1.9135505e-17
0.88874024
0.84056717
0.80099132
0.76078894
0.71728726
0.67113749
0.62299674
0.57362636
0.52393568
0.47473428
0.42674389
0.38029154
0.33580878
0.29372206
0.25435001
0.21794903
0.18471559
0.15484798
0.12826564
0.10483928
0.084478708
0.067067072
0.052524121
0.04047179
0.030591167
0.022656652
0.016433008
0.011745029
0.008244518
0.0056556897
0.0037871326
0.0024719321
0.0015956386
0.0010144369
0.00062949359
0.00038057804
0.00022358068
0.00013067565
7.5533054e-05
4.2567389e-05
2.3326206e-05
1.238018e-05
6.58132e-06
3.4759608e-06
1.7876886e-06
8.9209319e-07
4.296234e-07
2.0877233e-07
1.0132566e-07
4.7832488e-08
2.1862975e-08
9.6072261e-09
4.2926449e-09
1.9266557e-09
8.4017938e-10
3.539912e-10
1.4280401e-10
5.9020883e-11
2.4646576e-11
9.9861343e-12
3.8975661e-12
1.4474317e-12
5.5368834e-13
2.1651612e-13
8.9393258e-14
5.3574723e-14
4.334301e-14
3.5966348e-14
2.9923969e-14
2.482044e-14
2.0500685e-14
1.6865664e-14
1.386681e-14
1.138037e-14
9.3061666e-15
7.5814441e-15
6.1521225e-15
4.9907766e-15
4.0415317e-15
3.2603295e-15
2.6195971e-15
2.0960901e-15
1.6771704e-15
1.3397755e-15
1.0660419e-15
8.4474186e-16
6.6660054e-16
5.2625282e-16
4.1486794e-16
3.2575678e-16
2.5471615e-16
1.9833706e-16
1.545741e-16
1.2031576e-16
9.3260007e-17
7.1969001e-17
5.5289643e-17
4.2525935e-17
3.2667715e-17
2.4985644e-17
1.9135505e-17
0.88874024
0.82531521
0.7792039
0.73386746
0.68548847
0.6350113
0.58339769
0.53172453
0.48100526
0.43207097
0.38561774
0.34171025
0.30050171
0.2621885
0.22689041
0.19466484
0.16551158
0.13938283
0.11611913
0.095582713
0.077669736
0.062269113
0.049240385
0.038282471
0.029183168
0.021790286
0.015935446
0.011469689
0.0080950382
0.005577489
0.0037481142
0.0024541434
0.0015878361
0.0010110287
0.00062805376
0.00037999896
0.00022337112
0.00013060261
7.5507413e-05
4.2558751e-05
2.3323507e-05
1.2379489e-05
6.5811691e-06
3.4759402e-06
1.7876972e-06
8.9210366e-07
4.2963105e-07
2.0877623e-07
1.0132758e-07
4.7833483e-08
2.1863471e-08
9.607476e-09
4.2927485e-09
1.9266989e-09
8.4019864e-10
3.5399939e-10
1.4280751e-10
5.9021936e-11
2.4646811e-11
9.9861507e-12
3.8975261e-12
1.4473964e-12
5.5365802e-13
2.1649673e-13
8.9386019e-14
5.3571502e-14
4.3338947e-14
3.5961698e-14
2.9918672e-14
2.481451e-14
2.0494165e-14
1.6858617e-14
1.3859204e-14
1.1372296e-14
9.2977679e-15
7.5728391e-15
6.1434917e-15
4.9821426e-15
4.0330173e-15
3.2520977e-15
2.6117666e-15
2.0888384e-15
1.6704854e-15
1.3336876e-15
1.0606052e-15
8.399714e-16
6.6254732e-16
5.2283097e-16
4.1200732e-16
3.2341075e-16
2.5282844e-16
1.9687466e-16
1.5345082e-16
1.1945909e-16
9.2618834e-17
7.1498849e-17
5.4959726e-17
4.2296986e-17
3.2509619e-17
2.4881859e-17
1.9135505e-17
0.88874024
0.81634869
0.76805196
0.72016952
0.66952386
0.61709306
0.56403641
0.51155585
0.46067552
0.41219303
0.36673897
0.32426701
0.28477385
0.24834468
0.21500434
0.18471933
0.15739835
0.13289949
0.11104855
0.091723195
0.074827952
0.060257524
0.047850527
0.037344157
0.028572574
0.021410899
0.015715608
0.011346861
0.0080277451
0.0055420482
0.0037303466
0.0024460138
0.001584259
0.0010094624
0.00062739137
0.00037973259
0.00022327493
0.0001305692
7.5495759e-05
4.2554881e-05
2.3322333e-05
1.2379215e-05
6.5811235e-06
3.4759434e-06
1.7877083e-06
8.921124e-07
4.2963676e-07
2.0877905e-07
1.0132895e-07
4.783419e-08
2.1863824e-08
9.6076539e-09
4.2928229e-09
1.9267303e-09
8.4021293e-10
3.5400565e-10
1.4281027e-10
5.9022867e-11
2.4647096e-11
9.9862353e-12
3.8975403e-12
1.4473941e-12
5.5364901e-13
2.1648965e-13
8.9383499e-14
5.3570244e-14
4.3337093e-14
3.5959557e-14
2.9916229e-14
2.4811772e-14
2.0491151e-14
1.6855358e-14
1.3855685e-14
1.1368558e-14
9.2938783e-15
7.5688522e-15
6.1394912e-15
4.9781387e-15
4.0290678e-15
3.2482782e-15
2.6081322e-15
2.0854717e-15
1.6673814e-15
1.3308612e-15
1.0580815e-15
8.3775749e-16
6.6066684e-16
5.2124422e-16
4.1068177e-16
3.2232445e-16
2.5195507e-16
1.9619859e-16
1.5293186e-16
1.1906355e-16
9.2322941e-17
7.1281996e-17
5.4807633e-17
4.2191463e-17
3.2436763e-17
2.4834511e-17
1.9135505e-17
0.88874024
0.81197408
0.76465317
0.71603009
0.66491629
0.61210569
0.55888181
0.50646508
0.45583918
0.40774565
0.36275268
0.3208207
0.28188478
0.24599778
0.21316118
0.18332297
0.15637218
0.13214804
0.11049243
0.091310693
0.074525565
0.06004019
0.047689272
0.037223387
0.028486765
0.02135387
0.015680888
0.011326362
0.0080158864
0.0055355677
0.0037270142
0.0024444638
0.0015835664
0.0010091554
0.00062726103
0.00037968034
0.0002232564
0.00013056293
7.549368e-05
4.255427e-05
2.33222e-05
1.2379225e-05
6.581148e-06
3.4759617e-06
1.7877204e-06
8.9211959e-07
4.2964094e-07
2.0878104e-07
1.0132991e-07
4.7834678e-08
2.1864067e-08
9.6077768e-09
4.2928749e-09
1.9267527e-09
8.4022334e-10
3.5401036e-10
1.4281242e-10
5.9023674e-11
2.4647401e-11
9.9863599e-12
3.8975888e-12
1.4474132e-12
5.536542e-13
2.1649087e-13
8.9384152e-14
5.3570318e-14
4.333675e-14
3.5959136e-14
2.991574e-14
2.4811221e-14
2.0490542e-14
1.6854697e-14
1.3854967e-14
1.1367794e-14
9.2930803e-15
7.5680316e-15
6.1386653e-15
4.9773094e-15
4.0282476e-15
3.2474832e-15
2.6073735e-15
2.0847673e-15
1.6667308e-15
1.3302686e-15
1.0575525e-15
8.3729332e-16
6.6027316e-16
5.2091287e-16
4.1040597e-16
3.2209933e-16
2.5177475e-16
1.9605971e-16
1.5282572e-16
1.1898294e-16
9.2262854e-17
7.1238094e-17
5.4776984e-17
4.2170257e-17
3.2422142e-17
2.4825515e-17
1.9135505e-17
0.88874024
0.81095037
0.76671189
0.71856889
0.66818221
0.61599894
0.5633792
0.51150541
0.46130003
0.41344849
0.36847937
0.32643098
0.28724545
0.25099295
0.21769783
0.18733581
0.15982065
0.1350118
0.11278267
0.093072471
0.075826755
0.060959164
0.048309102
0.037624802
0.028737759
0.021504605
0.015766027
0.011372414
0.0080402376
0.0055480698
0.0037331686
0.0024472484
0.0015847774
0.0010096806
0.00062748265
0.00037976983
0.0002232893
0.00013057464
7.5497938e-05
4.2555812e-05
2.3322751e-05
1.2379419e-05
6.5812176e-06
3.4759894e-06
1.7877329e-06
8.9212552e-07
4.2964397e-07
2.0878242e-07
1.0133055e-07
4.7835005e-08
2.186423e-08
9.6078594e-09
4.2929104e-09
1.9267684e-09
8.4023084e-10
3.5401389e-10
1.4281411e-10
5.9024373e-11
2.4647708e-11
9.9865066e-12
3.8976583e-12
1.4474457e-12
5.5366855e-13
2.164975e-13
8.9386877e-14
5.3571267e-14
4.3337408e-14
3.5959853e-14
2.9916546e-14
2.4812117e-14
2.0491524e-14
1.6855756e-14
1.3856106e-14
1.1368998e-14
9.2943304e-15
7.569309e-15
6.1399438e-15
4.9785845e-15
4.0295021e-15
3.2486936e-15
2.6085219e-15
2.0858288e-15
1.6677076e-15
1.3311575e-15
1.0583462e-15
8.3798917e-16
6.608651e-16
5.2141346e-16
4.1082549e-16
3.2244438e-16
2.5205307e-16
1.9627624e-16
1.5299261e-16
1.1911055e-16
9.2358635e-17
7.1308484e-17
5.4826588e-17
4.2204763e-17
3.2445994e-17
2.4841738e-17
1.9135505e-17
0.88874024
0.81232498
0.7724322
0.72556876
0.67667632
0.62575105
0.57419666
0.52312937
0.47340711
0.42566836
0.3804269
0.33783065
0.29787496
0.26067612
0.22630902
0.1948053
0.16613076
0.1401885
0.11689399
0.096224914
0.078152837
0.062602963
0.049425744
0.038357915
0.029202661
0.021787357
0.015927342
0.01146076
0.0080876315
0.0055726708
0.0037453777
0.0024528038
0.0015872059
0.0010107384
0.00062792971
0.00037995017
0.0002233552
0.00013059788
7.5506257e-05
4.2558734e-05
2.332374e-05
1.237973e-05
6.5813152e-06
3.4760226e-06
1.7877452e-06
8.9213049e-07
4.2964619e-07
2.0878336e-07
1.0133098e-07
4.7835219e-08
2.1864336e-08
9.6079137e-09
4.2929342e-09
1.9267793e-09
8.4023627e-10
3.5401657e-10
1.4281545e-10
5.9024986e-11
2.464801e-11
9.9866647e-12
3.8977402e-12
1.4474866e-12
5.5368867e-13
2.1650759e-13
8.939094e-14
5.3572784e-14
4.3338705e-14
3.5961296e-14
2.9918177e-14
2.4813939e-14
2.0493523e-14
1.6857915e-14
1.3858431e-14
1.1371462e-14
9.2968905e-15
7.5719288e-15
6.1425695e-15
4.9812074e-15
4.0320855e-15
3.251189e-15
2.6108928e-15
2.0880231e-15
1.6697286e-15
1.332997e-15
1.0599885e-15
8.3942956e-16
6.6208979e-16
5.2244794e-16
4.1169098e-16
3.23155e-16
2.5262537e-16
1.9672057e-16
1.5333438e-16
1.1937148e-16
9.2554185e-17
7.1452021e-17
5.4927547e-17
4.22749e-17
3.2494441e-17
2.4874054e-17
1.9135505e-17
0.88874024
0.81536358
0.78044135
0.73536449
0.68843829
0.63916339
0.58895974
0.53886317
0.48967098
0.44198371
0.39631761
0.35293437
0.31191059
0.27342285
0.23761137
0.20458005
0.17436336
0.14692569
0.12223596
0.10031662
0.081169382
0.064731247
0.050870067
0.039307188
0.029805697
0.022154815
0.016137202
0.011575822
0.0081495078
0.0056048579
0.0037613788
0.0024600955
0.0015903958
0.001012129
0.00062851772
0.00038018735
0.00022344181
0.00013062835
7.5517121e-05
4.2562519e-05
2.3325004e-05
1.2380114e-05
6.5814301e-06
3.4760591e-06
1.7877574e-06
8.9213478e-07
4.2964785e-07
2.0878401e-07
1.0133126e-07
4.7835357e-08
2.1864405e-08
9.607949e-09
4.2929502e-09
1.926787e-09
8.402403e-10
3.5401868e-10
1.4281655e-10
5.9025538e-11
2.4648307e-11
9.9868294e-12
3.8978297e-12
1.4475326e-12
5.5371249e-13
2.1651989e-13
8.9395895e-14
5.3574679e-14
4.3340398e-14
3.5963188e-14
2.9920318e-14
2.481633e-14
2.0496149e-14
1.6860752e-14
1.3861488e-14
1.1374703e-14
9.3002596e-15
7.5753781e-15
6.1460288e-15
4.9846645e-15
4.0354916e-15
3.2544805e-15
2.6140218e-15
2.090921e-15
1.6723982e-15
1.335427e-15
1.0621585e-15
8.4133325e-16
6.6370867e-16
5.2381488e-16
4.1283406e-16
3.2409316e-16
2.5338072e-16
1.9730682e-16
1.5378503e-16
1.1971535e-16
9.2811792e-17
7.1641065e-17
5.506047e-17
4.2367185e-17
3.2558163e-17
2.4916414e-17
1.9135505e-17
0.88874024
0.81950963
0.78971482
0.74673689
0.7020481
0.65466898
0.6060089
0.55701436
0.50842653
0.46081246
0.41469777
0.37044397
0.32822267
0.28827517
0.25081283
0.21602039
0.18401035
0.15482364
0.12849812
0.10511121
0.084701377
0.067217191
0.052550574
0.040408324
0.030503735
0.022579606
0.016379426
0.011708304
0.0082206713
0.0056418659
0.0037797771
0.0024684855
0.0015940641
0.0010137277
0.00062919394
0.00038046018
0.00022354153
0.00013066339
7.5529587e-05
4.2566851e-05
2.3326441e-05
1.2380546e-05
6.5815561e-06
3.4760976e-06
1.7877695e-06
8.9213864e-07
4.2964915e-07
2.0878448e-07
1.0133145e-07
4.7835447e-08
2.1864449e-08
9.6079721e-09
4.2929612e-09
1.9267927e-09
8.4024342e-10
3.5402042e-10
1.428175e-10
5.9026054e-11
2.4648602e-11
9.9869991e-12
3.8979247e-12
1.4475826e-12
5.5373894e-13
2.1653375e-13
8.9401536e-14
5.357686e-14
4.3342334e-14
3.5965348e-14
2.9922764e-14
2.4819061e-14
2.0499149e-14
1.6863996e-14
1.3864985e-14
1.137841e-14
9.3041139e-15
7.5793255e-15
6.1499905e-15
4.9886241e-15
4.0393933e-15
3.258252e-15
2.6176088e-15
2.0942456e-15
1.6754612e-15
1.3382151e-15
1.064649e-15
8.4351895e-16
6.6556839e-16
5.2538482e-16
4.1414654e-16
3.251703e-16
2.5424806e-16
1.9798019e-16
1.5430242e-16
1.2010998e-16
9.3107406e-17
7.1858009e-17
5.5213039e-17
4.2473043e-17
3.2631227e-17
2.4965031e-17
1.9135505e-17
0.88874024
0.82435901
0.79950107
0.75881502
0.71649797
0.67116837
0.62419759
0.57643478
0.5285665
0.48112553
0.43464439
0.38955835
0.34613688
0.30468333
0.2654799
0.22879583
0.19482515
0.16369828
0.13554252
0.11050579
0.088673742
0.070006558
0.054426465
0.041631017
0.031275621
0.023047954
0.01664579
0.011853337
0.0082983273
0.0056821896
0.0037998091
0.0024776285
0.0015980562
0.0010154657
0.0006299294
0.00038075709
0.00022365033
0.00013070157
7.5543155e-05
4.2571563e-05
2.3328e-05
1.2381012e-05
6.5816906e-06
3.4761378e-06
1.7877816e-06
8.9214227e-07
4.2965024e-07
2.0878483e-07
1.0133159e-07
4.7835506e-08
2.1864479e-08
9.6079877e-09
4.2929692e-09
1.9267971e-09
8.4024603e-10
3.5402195e-10
1.4281838e-10
5.9026558e-11
2.4648902e-11
9.9871758e-12
3.8980256e-12
1.4476364e-12
5.5376778e-13
2.1654899e-13
8.9407869e-14
5.3579321e-14
4.3344423e-14
3.596767e-14
2.9925389e-14
2.4821994e-14
2.0502373e-14
1.6867483e-14
1.3868744e-14
1.1382395e-14
9.3082583e-15
7.5835713e-15
6.1542555e-15
4.9928867e-15
4.0435932e-15
3.2623133e-15
2.621473e-15
2.0978309e-15
1.6787644e-15
1.3412217e-15
1.0673355e-15
8.4587798e-16
6.6757763e-16
5.2708065e-16
4.1556389e-16
3.2633374e-16
2.5518525e-16
1.9870843e-16
1.5486174e-16
1.2053643e-16
9.3426875e-17
7.2092516e-17
5.5378082e-17
4.2587471e-17
3.2710159e-17
2.5017732e-17
1.9135505e-17
0.88874024
0.82965912
0.80924151
0.77098811
0.73108291
0.68789643
0.6427341
0.59634066
0.54934489
0.50224046
0.45555804
0.40977233
0.36524405
0.32233094
0.28138105
0.24274851
0.2067081
0.17348871
0.14333137
0.11647615
0.093071118
0.073089782
0.056489216
0.042967116
0.032114789
0.023555258
0.016933594
0.012009188
0.0083813971
0.0057252371
0.0038211749
0.0024873985
0.0016023142
0.0010173167
0.00063071329
0.00038107393
0.00022376695
0.00013074247
7.5557666e-05
4.2576606e-05
2.332967e-05
1.2381513e-05
6.5818337e-06
3.47618e-06
1.7877941e-06
8.9214586e-07
4.2965124e-07
2.0878512e-07
1.0133169e-07
4.7835549e-08
2.18645e-08
9.6079992e-09
4.2929755e-09
1.9268008e-09
8.4024839e-10
3.5402341e-10
1.4281926e-10
5.9027074e-11
2.4649216e-11
9.9873642e-12
3.8981345e-12
1.4476955e-12
5.5379956e-13
2.1656585e-13
8.9415113e-14
5.3582141e-14
4.3346625e-14
3.5970097e-14
2.9928129e-14
2.4825055e-14
2.0505738e-14
1.6871129e-14
1.3872672e-14
1.1386558e-14
9.3125891e-15
7.5880094e-15
6.1587199e-15
4.9973475e-15
4.0479871e-15
3.2665638e-15
2.6255194e-15
2.1015912e-15
1.6822282e-15
1.3443736e-15
1.0701534e-15
8.4835398e-16
6.696901e-16
5.2886308e-16
4.170531e-16
3.2755669e-16
2.5617099e-16
1.9947567e-16
1.5545071e-16
1.2098523e-16
9.3763172e-17
7.2339481e-17
5.5552156e-17
4.2708044e-17
3.2793257e-17
2.5073479e-17
1.9135505e-17
0.88874024
0.83538458
0.81847229
0.78282552
0.74530653
0.70431589
0.66106108
0.61618061
0.57023709
0.52367839
0.47702049
0.43074047
0.38527261
0.34101803
0.29838182
0.25780061
0.2196275
0.18419316
0.15187736
0.12303941
0.097910371
0.076482741
0.058750072
0.044422672
0.033024316
0.024103134
0.01724402
0.012176391
0.0084700678
0.0057711031
0.0038439295
0.0024978431
0.0016068575
0.0010192882
0.00063154954
0.00038141266
0.00022389252
0.00013078646
7.5573253e-05
4.2582036e-05
2.3331472e-05
1.2382056e-05
6.5819884e-06
3.4762253e-06
1.7878073e-06
8.9214959e-07
4.2965223e-07
2.0878538e-07
1.0133177e-07
4.7835583e-08
2.1864516e-08
9.6080085e-09
4.2929811e-09
1.9268044e-09
8.4025074e-10
3.5402491e-10
1.4282018e-10
5.9027633e-11
2.4649559e-11
9.9875726e-12
3.8982561e-12
1.4477627e-12
5.5383564e-13
2.1658505e-13
8.9423736e-14
5.3585495e-14
4.3348937e-14
3.5972611e-14
2.9930958e-14
2.4828214e-14
2.0509213e-14
1.6874903e-14
1.3876736e-14
1.1390862e-14
9.3170684e-15
7.5926016e-15
6.1633494e-15
5.0019708e-15
4.0525382e-15
3.2709686e-15
2.6297152e-15
2.1055e-15
1.685827e-15
1.3476468e-15
1.0730815e-15
8.509291e-16
6.7189303e-16
5.3072091e-16
4.1860434e-16
3.2883138e-16
2.5719933e-16
2.0027828e-16
1.5606636e-16
1.2145392e-16
9.4114525e-17
7.259766e-17
5.5734605e-17
4.2834256e-17
3.2880127e-17
2.5132044e-17
1.9135505e-17
0.88874024
0.841706
0.82667762
0.79399995
0.75879417
0.72002983
0.67876354
0.63553902
0.59084103
0.54506572
0.4986957
0.45218392
0.40600065
0.36057961
0.31637108
0.27388773
0.23356044
0.19582024
0.16120582
0.13022606
0.10322018
0.080212404
0.061230975
0.046012398
0.034013539
0.024697411
0.017581056
0.012357211
0.0085655167
0.005820435
0.0038684217
0.0025091606
0.0016117736
0.0010214178
0.00063245535
0.00038178083
0.00022403046
0.00013083474
7.5590328e-05
4.2588007e-05
2.3333461e-05
1.2382663e-05
6.5821603e-06
3.4762753e-06
1.7878218e-06
8.9215364e-07
4.2965328e-07
2.0878564e-07
1.0133185e-07
4.7835613e-08
2.1864531e-08
9.6080172e-09
4.2929866e-09
1.9268081e-09
8.4025325e-10
3.5402656e-10
1.4282123e-10
5.9028272e-11
2.4649952e-11
9.9878134e-12
3.898398e-12
1.4478426e-12
5.538784e-13
2.1660783e-13
8.943451e-14
5.358968e-14
4.3351388e-14
3.597522e-14
2.9933879e-14
2.4831476e-14
2.0512805e-14
1.6878815e-14
1.3880946e-14
1.1395316e-14
9.3217073e-15
7.5973603e-15
6.1681625e-15
5.0067732e-15
4.0572608e-15
3.2755426e-15
2.6340757e-15
2.109577e-15
1.6895777e-15
1.3510547e-15
1.0761328e-15
8.5361539e-16
6.7420027e-16
5.3266505e-16
4.2022589e-16
3.3016497e-16
2.5827634e-16
2.0112231e-16
1.5671305e-16
1.2194552e-16
9.4483269e-17
7.2868828e-17
5.5926991e-17
4.296712e-17
3.2971402e-17
2.5193791e-17
1.9135505e-17
0.88874024
0.84818784
0.83403506
0.80434182
0.77138027
0.73482252
0.69557935
0.65411667
0.6108344
0.56607401
0.52026616
0.47382179
0.4271895
0.38082191
0.33520168
0.29090415
0.24844205
0.20834525
0.17132064
0.13805506
0.1090234
0.08430438
0.063956925
0.04775529
0.035095486
0.025346655
0.017950712
0.012555285
0.0086697437
0.0058743571
0.0038952637
0.0025216914
0.001617216
0.0010237723
0.00063346122
0.00038219173
0.00022418656
0.00013088932
7.5609595e-05
4.2594778e-05
2.3335729e-05
1.2383366e-05
6.5823586e-06
3.4763326e-06
1.7878385e-06
8.9215826e-07
4.2965447e-07
2.0878593e-07
1.0133193e-07
4.7835641e-08
2.1864545e-08
9.6080261e-09
4.2929926e-09
1.9268123e-09
8.4025613e-10
3.540285e-10
1.4282249e-10
5.9029041e-11
2.4650425e-11
9.9881051e-12
3.8985713e-12
1.4479422e-12
5.5393142e-13
2.1663609e-13
8.9448604e-14
5.3595145e-14
4.3354038e-14
3.5977956e-14
2.9936921e-14
2.483487e-14
2.0516547e-14
1.688291e-14
1.3885348e-14
1.1399967e-14
9.3265535e-15
7.6023354e-15
6.1732179e-15
5.0118102e-15
4.0622065e-15
3.2803366e-15
2.6386504e-15
2.113876e-15
1.6935276e-15
1.3546382e-15
1.0793449e-15
8.56447e-16
6.7664595e-16
5.3472358e-16
4.2194029e-16
3.3157671e-16
2.5941817e-16
2.0202232e-16
1.5740148e-16
1.2246768e-16
9.4875209e-17
7.3157319e-17
5.6132807e-17
4.3108956e-17
3.3068591e-17
2.5259516e-17
1.9135505e-17
0.88874024
0.85448268
0.84071668
0.81380153
0.78302704
0.74862297
0.71139718
0.67175536
0.63001452
0.58645437
0.54143951
0.49532931
0.44850668
0.40142313
0.35457882
0.30859413
0.26406407
0.22161799
0.18212554
0.14646932
0.11528561
0.088739558
0.066919449
0.049644641
0.036263072
0.026044539
0.018348083
0.012767443
0.0087806711
0.0059315643
0.0039237072
0.0025350206
0.0016229935
0.001026265
0.00063452734
0.00038262806
0.00022435346
0.00013094761
7.5630144e-05
4.2602017e-05
2.3338159e-05
1.2384124e-05
6.5825719e-06
3.4763941e-06
1.7878563e-06
8.9216317e-07
4.2965571e-07
2.0878621e-07
1.01332e-07
4.7835666e-08
2.1864557e-08
9.6080341e-09
4.2929984e-09
1.9268165e-09
8.4025915e-10
3.5403056e-10
1.4282387e-10
5.9029883e-11
2.4650942e-11
9.9884263e-12
3.898763e-12
1.4480535e-12
5.5399054e-13
2.1666763e-13
8.9464704e-14
5.3601386e-14
4.3356797e-14
3.5980757e-14
2.994002e-14
2.4838328e-14
2.0520363e-14
1.6887098e-14
1.3889845e-14
1.1404714e-14
9.3315029e-15
7.6074189e-15
6.1783978e-15
5.0169674e-15
4.0672655e-15
3.2852432e-15
2.6433357e-15
2.1182924e-15
1.6975829e-15
1.3583145e-15
1.0826426e-15
8.5935663e-16
6.7916765e-16
5.3684521e-16
4.237058e-16
3.3303164e-16
2.6059608e-16
2.0295406e-16
1.5811377e-16
1.2300729e-16
9.5280427e-17
7.3455766e-17
5.6346443e-17
4.3256017e-17
3.316919e-17
2.5327474e-17
1.9135505e-17
0.88874024
0.86033778
0.84681871
0.82238434
0.79372081
0.76139287
0.7261419
0.68833051
0.64820222
0.60596985
0.5619223
0.51636059
0.46956669
0.42197105
0.37407754
0.326538
0.28002675
0.23527699
0.19331425
0.15522353
0.12182028
0.093380439
0.070027657
0.051624962
0.037482537
0.026770781
0.018761065
0.012987414
0.0088950943
0.0059903706
0.0039528936
0.0025487152
0.0016289204
0.0010288165
0.00063561859
0.00038307499
0.00022452501
0.0001310075
7.5651229e-05
4.2609452e-05
2.3340658e-05
1.2384905e-05
6.5827913e-06
3.4764569e-06
1.7878745e-06
8.9216807e-07
4.296569e-07
2.0878646e-07
1.0133206e-07
4.7835681e-08
2.1864564e-08
9.6080398e-09
4.2930033e-09
1.9268204e-09
8.4026207e-10
3.5403261e-10
1.4282526e-10
5.9030746e-11
2.4651475e-11
9.9887593e-12
3.8989627e-12
1.4481702e-12
5.5405254e-13
2.1670075e-13
8.9481809e-14
5.3608017e-14
4.3359591e-14
3.5983563e-14
2.9943118e-14
2.4841783e-14
2.0524178e-14
1.6891292e-14
1.3894348e-14
1.1409465e-14
9.3364578e-15
7.6125098e-15
6.183594e-15
5.0221388e-15
4.072336e-15
3.2901629e-15
2.6480356e-15
2.122731e-15
1.7016578e-15
1.3620071e-15
1.0859565e-15
8.6228254e-16
6.8170887e-16
5.3898321e-16
4.2548421e-16
3.3449791e-16
2.617839e-16
2.0389566e-16
1.5883349e-16
1.2355211e-16
9.5689609e-17
7.3757219e-17
5.6562639e-17
4.3404758e-17
3.3270817e-17
2.5395901e-17
1.9135505e-17
0.88874024
0.86558861
0.85236445
0.83010066
0.80343384
0.77307454
0.73971487
0.70368775
0.6651766
0.62432723
0.58134865
0.53647947
0.48987511
0.4419281
0.39313717
0.3441769
0.2957959
0.24883709
0.20447491
0.16399023
0.12838167
0.098050577
0.073164992
0.053625273
0.03871174
0.027500782
0.019175589
0.013207948
0.0090093709
0.0060489146
0.0039818967
0.0025623254
0.0016348041
0.0010313446
0.00063669942
0.00038351771
0.00022469524
0.00013106688
7.567212e-05
4.2616819e-05
2.3343133e-05
1.238568e-05
6.5830077e-06
3.4765184e-06
1.7878919e-06
8.9217266e-07
4.2965792e-07
2.0878663e-07
1.0133207e-07
4.7835677e-08
2.1864562e-08
9.6080408e-09
4.2930062e-09
1.9268234e-09
8.4026458e-10
3.5403448e-10
1.4282657e-10
5.9031577e-11
2.4651996e-11
9.9890873e-12
3.8991605e-12
1.4482865e-12
5.5411446e-13
2.1673388e-13
8.9499047e-14
5.3614706e-14
4.3362339e-14
3.5986307e-14
2.9946143e-14
2.4845157e-14
2.0527905e-14
1.6895392e-14
1.3898749e-14
1.1414108e-14
9.3413008e-15
7.6174868e-15
6.1886793e-15
5.0271989e-15
4.0772964e-15
3.2949771e-15
2.6526364e-15
2.1270813e-15
1.7056516e-15
1.3656256e-15
1.0892052e-15
8.6515223e-16
6.8420459e-16
5.4108335e-16
4.272308e-16
3.3593834e-16
2.6295129e-16
2.0482221e-16
1.5954175e-16
1.2408796e-16
9.6092022e-17
7.4053705e-17
5.6775484e-17
4.3551154e-17
3.3370757e-17
2.5462848e-17
1.9135505e-17
0.88874024
0.87014251
0.85731487
0.8369183
0.81207829
0.78353142
0.75192298
0.71756356
0.68058986
0.64108632
0.59918421
0.55505645
0.50872833
0.4605327
0.4109652
0.36072117
0.31061854
0.26161399
0.2150227
0.17230135
0.13461757
0.10249879
0.076164326
0.055542686
0.039889963
0.02819962
0.01957218
0.013419011
0.0091185053
0.0061046951
0.0040094933
0.0025752738
0.0016403986
0.0010337451
0.00063772517
0.00038393783
0.00022485689
0.00013112324
7.5691927e-05
4.2623799e-05
2.3345474e-05
1.238641e-05
6.5832102e-06
3.4765752e-06
1.7879076e-06
8.921765e-07
4.2965861e-07
2.0878666e-07
1.0133203e-07
4.7835639e-08
2.1864543e-08
9.6080333e-09
4.2930054e-09
1.9268247e-09
8.4026624e-10
3.5403593e-10
1.4282766e-10
5.9032311e-11
2.4652469e-11
9.9893902e-12
3.8993451e-12
1.4483958e-12
5.5417301e-13
2.1676532e-13
8.9515481e-14
5.3621095e-14
4.3364933e-14
3.598889e-14
2.9948989e-14
2.4848332e-14
2.0531412e-14
1.6899254e-14
1.3902895e-14
1.141848e-14
9.3458622e-15
7.6221756e-15
6.1934732e-15
5.0319692e-15
4.0819723e-15
3.2995163e-15
2.6569757e-15
2.1311875e-15
1.7094219e-15
1.3690416e-15
1.0922729e-15
8.6786302e-16
6.8656409e-16
5.4306939e-16
4.2888233e-16
3.3730055e-16
2.6405555e-16
2.0569924e-16
1.6021221e-16
1.2459497e-16
9.6472686e-17
7.4334133e-17
5.6976888e-17
4.3689666e-17
3.3465251e-17
2.5525701e-17
1.9135505e-17
0.88874024
0.87395239
0.86156508
0.84270927
0.81944106
0.79246712
0.76238162
0.72947387
0.69384493
0.65552829
0.61458718
0.57113119
0.52506989
0.47666086
0.42640828
0.37503388
0.32342102
0.27263911
0.22413027
0.17949196
0.14002526
0.10636618
0.078785097
0.057226979
0.040927934
0.028815958
0.019922381
0.013605861
0.0092151355
0.0061540456
0.0040339002
0.0025867289
0.0016453491
0.0010358679
0.00063863187
0.00038430911
0.00022499977
0.00013117301
7.5709397e-05
4.2629944e-05
2.3347528e-05
1.2387046e-05
6.5833837e-06
3.4766223e-06
1.7879198e-06
8.9217897e-07
4.2965869e-07
2.0878644e-07
1.0133187e-07
4.7835547e-08
2.1864497e-08
9.6080117e-09
4.2929983e-09
1.9268231e-09
8.4026642e-10
3.5403662e-10
1.4282836e-10
5.9032856e-11
2.4652846e-11
9.9896404e-12
3.8995012e-12
1.4484896e-12
5.5422381e-13
2.1679279e-13
8.9529905e-14
5.3626725e-14
4.3367217e-14
3.5991163e-14
2.9951493e-14
2.4851125e-14
2.0534499e-14
1.6902654e-14
1.3906545e-14
1.1422331e-14
9.3498802e-15
7.6263067e-15
6.197699e-15
5.0361747e-15
4.086095e-15
3.3035193e-15
2.6608037e-15
2.1348119e-15
1.7127505e-15
1.3720576e-15
1.0949818e-15
8.7025745e-16
6.8864926e-16
5.4482495e-16
4.3034203e-16
3.3850448e-16
2.6503156e-16
2.0647457e-16
1.6080492e-16
1.2504295e-16
9.6808896e-17
7.4581741e-17
5.7154725e-17
4.3811962e-17
3.3548637e-17
2.5580616e-17
1.9135505e-17
0.88874024
0.87697485
0.8649087
0.8471732
0.82508401
0.79930451
0.77037186
0.73855034
0.703914
0.66646074
0.62620439
0.5832052
0.53728658
0.4886336
0.43777852
0.38548045
0.33268377
0.2805602
0.23065191
0.18464291
0.14390844
0.10915457
0.080691389
0.058465625
0.04169777
0.029275652
0.020184915
0.013746914
0.0092883812
0.0061915251
0.0040524648
0.0025954561
0.001649127
0.0010374883
0.00063932402
0.0003845925
0.00022510877
0.00013121093
7.5722671e-05
4.2634589e-05
2.3349067e-05
1.2387512e-05
6.5835058e-06
3.4766528e-06
1.787926e-06
8.9217915e-07
4.296578e-07
2.0878582e-07
1.0133153e-07
4.7835367e-08
2.1864408e-08
9.6079678e-09
4.2929813e-09
1.9268169e-09
8.4026419e-10
3.5403606e-10
1.428284e-10
5.9033079e-11
2.4653058e-11
9.9897984e-12
3.8996064e-12
1.4485554e-12
5.5426055e-13
2.1681301e-13
8.9540612e-14
5.3630944e-14
4.3368951e-14
3.5992893e-14
2.99534e-14
2.4853255e-14
2.0536853e-14
1.6905249e-14
1.3909331e-14
1.1425271e-14
9.3529489e-15
7.6294631e-15
6.2009292e-15
5.0393903e-15
4.0892481e-15
3.3065817e-15
2.6637335e-15
2.1375872e-15
1.7153001e-15
1.3743679e-15
1.0970571e-15
8.7209221e-16
6.9024742e-16
5.4617065e-16
4.3146063e-16
3.3942682e-16
2.6577913e-16
2.0706826e-16
1.6125863e-16
1.2538563e-16
9.7065891e-17
7.4770895e-17
5.7290528e-17
4.3905344e-17
3.3612276e-17
2.5621835e-17
1.9135505e-17
0.88874024
0.87909827
0.86695129
0.84971341
0.8281885
0.80300208
0.77462837
0.74330008
0.709074
0.67193557
0.63187992
0.58894727
0.54292688
0.49395858
0.44262717
0.38973929
0.33628956
0.28352599
0.23304036
0.18652198
0.14533537
0.11019653
0.081431389
0.058969651
0.042023149
0.02947524
0.020301624
0.013811428
0.009322557
0.0062092209
0.0040613068
0.0025996428
0.0016509528
0.0010382739
0.00063965996
0.00038473
0.0002251615
0.00013122917
7.5728985e-05
4.2636752e-05
2.3349753e-05
1.2387698e-05
6.5835439e-06
3.4766563e-06
1.7879226e-06
8.9217574e-07
4.2965542e-07
2.087846e-07
1.0133093e-07
4.7835057e-08
2.1864253e-08
9.6078903e-09
4.2929491e-09
1.9268035e-09
8.4025826e-10
3.5403357e-10
1.4282739e-10
5.903279e-11
2.4653002e-11
9.9898066e-12
3.8996285e-12
1.448575e-12
5.5427404e-13
2.1682122e-13
8.9545119e-14
5.3632804e-14
4.3369778e-14
3.599373e-14
2.9954328e-14
2.4854292e-14
2.0538003e-14
1.6906517e-14
1.3910695e-14
1.1426712e-14
9.3544544e-15
7.6310134e-15
6.2025176e-15
5.0409734e-15
4.0908016e-15
3.3080919e-15
2.6651798e-15
2.1389585e-15
1.7165608e-15
1.3755105e-15
1.0980835e-15
8.7299978e-16
6.9103781e-16
5.4683604e-16
4.3201315e-16
3.3988182e-16
2.6614746e-16
2.0736026e-16
1.6148149e-16
1.2555359e-16
9.7191584e-17
7.4863227e-17
5.7356703e-17
4.3950834e-17
3.3643246e-17
2.5640853e-17
1.9135505e-17
0.88874024
0.88001688
0.86695346
0.8492419
0.82732354
0.80178689
0.77303648
0.74126754
0.70653885
0.66886226
0.62826245
0.584809
0.53833886
0.48900595
0.43746778
0.38457636
0.33134831
0.27905795
0.22925823
0.18352462
0.14309888
0.10862792
0.080419097
0.058361097
0.041670238
0.029275619
0.020193394
0.013757129
0.009295808
0.0061959864
0.0040549178
0.0025967028
0.0016497086
0.0010377459
0.00063943508
0.0003846377
0.00022512553
0.00013121639
7.5724338e-05
4.2635006e-05
2.3349099e-05
1.2387447e-05
6.5834509e-06
3.4766181e-06
1.7879046e-06
8.9216694e-07
4.2965083e-07
2.0878251e-07
1.0132995e-07
4.7834559e-08
2.1864005e-08
9.6077641e-09
4.292895e-09
1.9267796e-09
8.4024685e-10
3.540282e-10
1.428248e-10
5.9031722e-11
2.4652537e-11
9.9895835e-12
3.8995217e-12
1.4485227e-12
5.5425115e-13
2.1681056e-13
8.953987e-14
5.3630947e-14
4.3369178e-14
3.5993163e-14
2.9953714e-14
2.4853613e-14
2.0537256e-14
1.6905698e-14
1.390982e-14
1.1425793e-14
9.3534991e-15
7.630035e-15
6.2015196e-15
5.0399838e-15
4.0898345e-15
3.307155e-15
2.6642869e-15
2.1381147e-15
1.7157876e-15
1.3748103e-15
1.0974544e-15
8.7244379e-16
6.9055282e-16
5.4642723e-16
4.3167209e-16
3.395993e-16
2.6591746e-16
2.0717638e-16
1.6134029e-16
1.2544623e-16
9.7110505e-17
7.4803165e-17
5.7313319e-17
4.3920976e-17
3.3622844e-17
2.5625428e-17
1.9135505e-17
0.88874024
0.8790245
0.86359566
0.84390577
0.82013151
0.7927976
0.76223274
0.72859354
0.69198717
0.65252097
0.61032217
0.56556413
0.51824992
0.46864233
0.41747026
0.36559989
0.31400898
0.26391558
0.21668744
0.17361466
0.13567775
0.10336206
0.076918268
0.056162351
0.040339724
0.028496237
0.019756261
0.013527943
0.0091787644
0.0061366649
0.0040257476
0.0025830696
0.0016438466
0.0010352378
0.0006383637
0.00038419826
0.0002249555
0.00013115672
7.5703124e-05
4.2627356e-05
2.3346424e-05
1.2386537e-05
6.5831619e-06
3.4765179e-06
1.7878653e-06
8.9215037e-07
4.296431e-07
2.0877919e-07
1.0132843e-07
4.7833799e-08
2.1863626e-08
9.6075704e-09
4.2928102e-09
1.9267411e-09
8.4022768e-10