# vtk DataFile Version 3.0
Local 2D buoyant multi-species CFD field
ASCII
DATASET STRUCTURED_POINTS
DIMENSIONS 101 25 1
ORIGIN 0 -0.6 0
SPACING 12 0.05 1
POINT_DATA 2525
SCALARS x_H2 float 1
LOOKUP_TABLE default
0.85751087
0.83274776
0.80502056
0.77448573
0.74134605
0.70574509
0.66789141
0.62789831
0.58626663
0.54348685
0.50000292
0.45628733
0.41290136
0.3703904
0.32919954
0.28975239
0.25242293
0.21778699
0.18598505
0.15705237
0.13106252
0.10801818
0.088126292
0.071087845
0.056594282
0.044435073
0.034378849
0.026340908
0.019944809
0.014876929
0.010921521
0.0078823074
0.0056419444
0.0039913989
0.0027767838
0.0018974156
0.0012715319
0.00084724119
0.00055845396
0.00036139435
0.0002292533
0.00014226431
8.8099032e-05
5.4057635e-05
3.2517677e-05
1.9137643e-05
1.0989145e-05
6.325951e-06
3.6167261e-06
2.0244832e-06
1.1066586e-06
5.8861585e-07
3.1553061e-07
1.6848147e-07
8.7975194e-08
4.4779681e-08
2.2114375e-08
1.1070411e-08
5.5387647e-09
2.7069748e-09
1.2873091e-09
5.9216094e-10
2.7777202e-10
1.3069867e-10
6.0006761e-11
2.6755802e-11
1.1499964e-11
5.0681666e-12
2.2465988e-12
9.6861088e-13
4.0379204e-13
1.6447504e-13
7.8065337e-14
5.6747089e-14
4.8440434e-14
4.1410985e-14
3.5221288e-14
2.9925447e-14
2.5391425e-14
2.1487468e-14
1.8133294e-14
1.5258925e-14
1.2837353e-14
1.0784413e-14
9.034979e-15
7.5479457e-15
6.2871989e-15
5.2372881e-15
4.3568316e-15
3.6142175e-15
2.9894281e-15
2.4651116e-15
2.0332969e-15
1.6749454e-15
1.3756968e-15
1.1264465e-15
9.1939238e-16
7.5075415e-16
6.1227783e-16
4.978066e-16
4.0343376e-16
0.85751087
0.80996816
0.77281354
0.73623482
0.69744587
0.65683076
0.61475472
0.57169048
0.52824975
0.4849856
0.44241528
0.40087025
0.3606623
0.32212239
0.28551447
0.25106378
0.21895858
0.18939573
0.1623721
0.13786779
0.11588405
0.096398221
0.079414078
0.06468106
0.052002242
0.041244597
0.032266781
0.024974924
0.019074101
0.014336295
0.010596923
0.0076997727
0.0055418233
0.0039367941
0.0027477519
0.0018825124
0.0012644613
0.00084396546
0.00055692972
0.00036070212
0.00022895056
0.00014214354
8.8051934e-05
5.403907e-05
3.2510589e-05
1.9135084e-05
1.0988352e-05
6.325719e-06
3.616663e-06
2.0244719e-06
1.1066599e-06
5.8861935e-07
3.1553166e-07
1.6848114e-07
8.7974424e-08
4.4778815e-08
2.2113667e-08
1.1069781e-08
5.5382633e-09
2.7066141e-09
1.2870624e-09
5.9200724e-10
2.7767161e-10
1.3063361e-10
5.9966561e-11
2.6731861e-11
1.1486857e-11
5.0606929e-12
2.2422997e-12
9.6623841e-13
4.0254987e-13
1.6392154e-13
7.7898341e-14
5.6667307e-14
4.8359353e-14
4.1326709e-14
3.5136294e-14
2.9840295e-14
2.5307079e-14
2.1405156e-14
1.8053971e-14
1.5184109e-14
1.2766986e-14
1.0718913e-14
8.9749074e-15
7.4935799e-15
6.2392375e-15
5.1951378e-15
4.3200891e-15
3.5826448e-15
2.962677e-15
2.4431117e-15
2.015297e-15
1.6603048e-15
1.3639529e-15
1.1171665e-15
9.1230619e-16
7.4537916e-16
6.0821788e-16
4.948688e-16
4.0343376e-16
0.85751087
0.79575185
0.7535809
0.71352368
0.67155316
0.62815651
0.58382911
0.53921732
0.49498413
0.45170696
0.40991757
0.36984269
0.3316298
0.29548707
0.26157038
0.22998922
0.20080603
0.17404098
0.14962902
0.12752821
0.10771008
0.090127898
0.074695947
0.061196841
0.049494332
0.039496095
0.031103618
0.024218611
0.018589653
0.014034288
0.010415063
0.0075971859
0.0054853902
0.0039059441
0.0027313222
0.0018740687
0.0012604516
0.00084210646
0.00055606437
0.00036030913
0.00022877877
0.00014207511
8.8025304e-05
5.402861e-05
3.2506623e-05
1.913367e-05
1.098793e-05
6.3256028e-06
3.6166362e-06
2.024471e-06
1.1066639e-06
5.8862331e-07
3.1553328e-07
1.6848148e-07
8.7974287e-08
4.4778488e-08
2.2113358e-08
1.1069467e-08
5.5379998e-09
2.7064203e-09
1.286928e-09
5.9192288e-10
2.7761584e-10
1.3059722e-10
5.9943992e-11
2.6718386e-11
1.1479472e-11
5.0564706e-12
2.2398668e-12
9.6489479e-13
4.0184613e-13
1.6360814e-13
7.780395e-14
5.662201e-14
4.8313208e-14
4.1278744e-14
3.5087919e-14
2.979183e-14
2.5259074e-14
2.1358312e-14
1.8008833e-14
1.5141537e-14
1.2726948e-14
1.0681651e-14
8.94074e-15
7.4626668e-15
6.2119694e-15
5.1711772e-15
4.2992077e-15
3.5647056e-15
2.9474829e-15
2.4306178e-15
2.0050758e-15
1.6519924e-15
1.357286e-15
1.1118995e-15
9.082843e-16
7.4232825e-16
6.0591357e-16
4.9321172e-16
4.0343376e-16
0.85751087
0.78745349
0.74391954
0.70218729
0.65879496
0.61416466
0.56889961
0.52371987
0.47929655
0.43619892
0.39493981
0.35569922
0.31853617
0.28359889
0.2509908
0.22076643
0.19292534
0.16741466
0.14415229
0.12309678
0.10421347
0.087444509
0.072668992
0.059690564
0.048403221
0.03873124
0.03059191
0.023883425
0.01837325
0.013898534
0.010332925
0.0075506632
0.0054596888
0.0038918386
0.0027237896
0.0018701904
0.0012586078
0.00084125075
0.00055566582
0.00036012821
0.0002286998
0.00014204378
8.8013173e-05
5.4023884e-05
3.2504862e-05
1.9133063e-05
1.0987765e-05
6.3255666e-06
3.6166338e-06
2.0244766e-06
1.1066693e-06
5.8862735e-07
3.1553516e-07
1.6848224e-07
8.7974558e-08
4.4778521e-08
2.211332e-08
1.1069371e-08
5.5379021e-09
2.7063433e-09
1.2868723e-09
5.9188729e-10
2.7759156e-10
1.3058107e-10
5.9933891e-11
2.6712316e-11
1.1476136e-11
5.05455e-12
2.2387552e-12
9.642796e-13
4.0152348e-13
1.6346456e-13
7.7760921e-14
5.660116e-14
4.8291829e-14
4.1256511e-14
3.5065491e-14
2.9769355e-14
2.5236809e-14
2.1336583e-14
1.7987893e-14
1.5121785e-14
1.2708371e-14
1.0664365e-14
8.9248923e-15
7.4483317e-15
6.1993277e-15
5.1600732e-15
4.2895356e-15
3.5564005e-15
2.9404524e-15
2.4248397e-15
2.0003508e-15
1.6481513e-15
1.3542064e-15
1.1094675e-15
9.0642798e-16
7.4092038e-16
6.0485049e-16
4.9245537e-16
4.0343376e-16
0.85751087
0.78341789
0.74113954
0.69896596
0.65535202
0.61051206
0.56514223
0.51998168
0.47568402
0.43279294
0.39179281
0.35286571
0.31604103
0.28144937
0.24918166
0.21928091
0.19173032
0.16645796
0.14338845
0.12249424
0.10374797
0.087092452
0.072398093
0.059480163
0.048244094
0.038615635
0.030512456
0.023829186
0.018336511
0.013874656
0.010318092
0.0075421081
0.0054548621
0.0038891334
0.0027223253
0.0018694298
0.0012582448
0.00084108162
0.00055558691
0.00036009255
0.00022868441
0.00014203786
8.8010968e-05
5.4023083e-05
3.2504606e-05
1.9133005e-05
1.0987776e-05
6.3255837e-06
3.6166473e-06
2.0244862e-06
1.1066754e-06
5.8863123e-07
3.1553712e-07
1.6848323e-07
8.7975081e-08
4.4778785e-08
2.2113458e-08
1.1069421e-08
5.5379162e-09
2.7063455e-09
1.2868701e-09
5.9188488e-10
2.7758875e-10
1.3057876e-10
5.9932317e-11
2.6711313e-11
1.1475573e-11
5.0542066e-12
2.2385491e-12
9.6416371e-13
4.0146204e-13
1.6343739e-13
7.7753147e-14
5.6597092e-14
4.8287431e-14
4.125192e-14
3.5060853e-14
2.9764697e-14
2.5232189e-14
2.1332069e-14
1.7983536e-14
1.511767e-14
1.2704499e-14
1.0660764e-14
8.9215928e-15
7.4453478e-15
6.1967002e-15
5.1577699e-15
4.2875347e-15
3.5546871e-15
2.9390056e-15
2.4236547e-15
1.9993845e-15
1.6473676e-15
1.3535795e-15
1.1089734e-15
9.060521e-16
7.4063587e-16
6.0463595e-16
4.9231101e-16
4.0343376e-16
0.85751087
0.78246168
0.74314045
0.70134376
0.65829555
0.61389932
0.56893341
0.52412653
0.48010326
0.43737632
0.39640565
0.35740586
0.32041842
0.28558342
0.25300601
0.22274693
0.19480392
0.16911551
0.1456257
0.12432834
0.10521105
0.088225656
0.07324832
0.060099297
0.048683214
0.038917814
0.030712026
0.023956938
0.018416583
0.013923746
0.010347266
0.0075584399
0.005463749
0.003893933
0.0027248621
0.0018707272
0.0012588604
0.00084136654
0.0005557195
0.00036015305
0.00022871111
0.00014204875
8.8015331e-05
5.4024875e-05
3.2505345e-05
1.9133309e-05
1.09879e-05
6.325635e-06
3.6166707e-06
2.024498e-06
1.1066818e-06
5.8863488e-07
3.1553906e-07
1.6848433e-07
8.7975748e-08
4.4779191e-08
2.2113706e-08
1.1069564e-08
5.5380029e-09
2.7063993e-09
1.2869031e-09
5.9190432e-10
2.7760012e-10
1.305856e-10
5.9936389e-11
2.6713669e-11
1.1476849e-11
5.0549098e-12
2.2389442e-12
9.6437943e-13
4.015742e-13
1.6348769e-13
7.776895e-14
5.6604195e-14
4.8294284e-14
4.1259017e-14
3.5068003e-14
2.9771849e-14
2.5239264e-14
2.1338965e-14
1.799017e-14
1.5123922e-14
1.2710375e-14
1.0666232e-14
8.9266085e-15
7.4498849e-15
6.2007073e-15
5.1612957e-15
4.290613e-15
3.5573369e-15
2.9412534e-15
2.4255085e-15
2.0009042e-15
1.6486056e-15
1.3545743e-15
1.1097604e-15
9.0665482e-16
7.4109384e-16
6.0498214e-16
4.9256895e-16
4.0343376e-16
0.85751087
0.78369794
0.74831575
0.70742321
0.66543773
0.62189236
0.57763672
0.53337314
0.48969428
0.44708306
0.4059834
0.36665563
0.32918035
0.29372306
0.26041937
0.22936612
0.2005953
0.17407413
0.14977378
0.12771388
0.10790181
0.090303436
0.074810673
0.061245149
0.049502228
0.039485372
0.031088765
0.024200189
0.018570858
0.014019238
0.010404454
0.0075906295
0.0054813773
0.0039035211
0.0027299543
0.0018733401
0.0012601023
0.00084194203
0.00055598747
0.00036027511
0.00022876477
0.00014207043
8.8023901e-05
5.4028326e-05
3.2506719e-05
1.9133843e-05
1.0988096e-05
6.3257078e-06
3.6167001e-06
2.024511e-06
1.1066881e-06
5.886383e-07
3.1554095e-07
1.6848548e-07
8.7976497e-08
4.4779681e-08
2.2114023e-08
1.1069766e-08
5.5381356e-09
2.7064861e-09
1.2869585e-09
5.9193776e-10
2.7762059e-10
1.3059833e-10
5.9944096e-11
2.6718191e-11
1.1479315e-11
5.0562895e-12
2.2397276e-12
9.6480964e-13
4.0179881e-13
1.6358845e-13
7.7800333e-14
5.6618555e-14
4.8308331e-14
4.1273586e-14
3.5082695e-14
2.9786557e-14
2.5253822e-14
2.1353164e-14
1.8003842e-14
1.5136815e-14
1.2722494e-14
1.067751e-14
8.9369501e-15
7.4592396e-15
6.2089648e-15
5.1685547e-15
4.296943e-15
3.5627793e-15
2.9458655e-15
2.4293067e-15
2.0040141e-15
1.6511364e-15
1.3566058e-15
1.1113662e-15
9.0788308e-16
7.4202624e-16
6.0568652e-16
4.9308342e-16
4.0343376e-16
0.85751087
0.78645736
0.75546573
0.71581036
0.67518749
0.6327445
0.58938858
0.54578584
0.50249836
0.45998211
0.41867234
0.37887563
0.34072688
0.30442501
0.27014468
0.23802921
0.20815669
0.18053645
0.1551738
0.13211778
0.11139891
0.092999605
0.076836263
0.062731662
0.050565797
0.040223184
0.031578521
0.024516548
0.018771877
0.014143873
0.010479209
0.0076327476
0.0055044602
0.0039160926
0.0027366379
0.0018767723
0.0012617349
0.00084269861
0.00055633975
0.00036043554
0.00022883525
0.00014209885
8.8035099e-05
5.4032813e-05
3.2508489e-05
1.913452e-05
1.0988337e-05
6.3257936e-06
3.616733e-06
2.0245247e-06
1.1066944e-06
5.8864152e-07
3.1554278e-07
1.6848666e-07
8.7977291e-08
4.4780221e-08
2.211438e-08
1.1070004e-08
5.5382969e-09
2.7065935e-09
1.287028e-09
5.919801e-10
2.7764685e-10
1.3061479e-10
5.9954115e-11
2.6724093e-11
1.1482544e-11
5.0581026e-12
2.2407595e-12
9.6537735e-13
4.0209581e-13
1.6372219e-13
7.7842326e-14
5.6637615e-14
4.8326819e-14
4.1292761e-14
3.5102043e-14
2.9805932e-14
2.5273003e-14
2.1371876e-14
1.8021865e-14
1.5153817e-14
1.2738478e-14
1.0692383e-14
8.9505891e-15
7.4715787e-15
6.2198573e-15
5.1781271e-15
4.3052872e-15
3.5699515e-15
2.9519425e-15
2.4343103e-15
2.0081092e-15
1.6544677e-15
1.3592792e-15
1.1134793e-15
9.0949894e-16
7.432523e-16
6.0661253e-16
4.9375754e-16
4.0343376e-16
0.85751087
0.79024187
0.7637149
0.7255082
0.68641718
0.64523333
0.60290393
0.56005119
0.51720836
0.47480672
0.43327671
0.39296326
0.35406165
0.3168069
0.28141591
0.24808334
0.21693923
0.18804609
0.16145196
0.13723968
0.11546649
0.096131713
0.079184529
0.064452426
0.051795662
0.041075805
0.032143617
0.024880741
0.01900304
0.014287121
0.010565113
0.007681143
0.0055309571
0.0039305191
0.0027443089
0.0018807124
0.0012636107
0.00084356751
0.00055674423
0.00036061976
0.00022891617
0.0001421315
8.8047938e-05
5.4037946e-05
3.2510506e-05
1.9135287e-05
1.0988606e-05
6.3258876e-06
3.6167681e-06
2.0245388e-06
1.1067006e-06
5.8864463e-07
3.1554457e-07
1.6848784e-07
8.7978113e-08
4.4780793e-08
2.2114765e-08
1.1070265e-08
5.5384769e-09
2.7067144e-09
1.2871068e-09
5.9202837e-10
2.7767693e-10
1.306337e-10
5.9965659e-11
2.6730912e-11
1.148629e-11
5.0602059e-12
2.2419566e-12
9.6603705e-13
4.0244171e-13
1.6387903e-13
7.7892502e-14
5.6659902e-14
4.8347965e-14
4.1314679e-14
3.5124176e-14
2.9828099e-14
2.5294949e-14
2.1393291e-14
1.8042498e-14
1.5173291e-14
1.2756785e-14
1.0709417e-14
8.9662123e-15
7.4857164e-15
6.2323419e-15
5.1890962e-15
4.3148469e-15
3.5781681e-15
2.958905e-15
2.4400442e-15
2.0128004e-15
1.6582832e-15
1.362341e-15
1.1158995e-15
9.1134998e-16
7.4465621e-16
6.0767265e-16
4.9453023e-16
4.0343376e-16
0.85751087
0.79469551
0.77243297
0.73582125
0.69834625
0.65852123
0.61731353
0.57529411
0.53296743
0.49074051
0.44903937
0.40823409
0.36857939
0.33034542
0.29379104
0.25916355
0.22664571
0.19636213
0.16841478
0.14292676
0.11998675
0.099609917
0.081785601
0.066353503
0.053151506
0.042014395
0.032764398
0.025279299
0.019255306
0.014443176
0.010658605
0.0077337983
0.0055597274
0.0039461635
0.0027526254
0.0018849843
0.0012656474
0.00084451016
0.00055718279
0.00036081959
0.00022900399
0.00014216699
8.8061881e-05
5.4043511e-05
3.2512691e-05
1.9136115e-05
1.0988895e-05
6.3259876e-06
3.6168049e-06
2.0245532e-06
1.1067068e-06
5.8864769e-07
3.1554636e-07
1.6848905e-07
8.7978963e-08
4.4781393e-08
2.2115173e-08
1.1070546e-08
5.538671e-09
2.7068454e-09
1.2871927e-09
5.9208131e-10
2.7770995e-10
1.3065446e-10
5.9978366e-11
2.6738434e-11
1.1490447e-11
5.0625363e-12
2.2432811e-12
9.6676844e-13
4.0282643e-13
1.6405551e-13
7.7950757e-14
5.6684834e-14
4.8370692e-14
4.1338202e-14
3.5147958e-14
2.9851921e-14
2.531853e-14
2.1416305e-14
1.8064679e-14
1.5194243e-14
1.2776481e-14
1.0727742e-14
8.9830223e-15
7.5009332e-15
6.2457892e-15
5.2009084e-15
4.3251395e-15
3.5870156e-15
2.9664041e-15
2.446224e-15
2.0178547e-15
1.6623929e-15
1.3656393e-15
1.1185072e-15
9.1334555e-16
7.4616893e-16
6.0881461e-16
4.9536572e-16
4.0343376e-16
0.85751087
0.79959935
0.78115597
0.74627244
0.71044328
0.67204209
0.63203488
0.59093539
0.54921609
0.50725854
0.46548195
0.42426495
0.38391548
0.34473521
0.30702227
0.271076
0.23712878
0.2053727
0.17597738
0.14911536
0.12491353
0.10340161
0.08461424
0.068414586
0.054617635
0.043027545
0.033433274
0.025706788
0.019524838
0.014609526
0.010758134
0.0077898671
0.0055902802
0.003962745
0.0027614374
0.0018895118
0.0012678117
0.00084551066
0.00055764789
0.00036103169
0.00022909729
0.00014220485
8.8076733e-05
5.4049431e-05
3.2515016e-05
1.9136996e-05
1.0989203e-05
6.3260933e-06
3.6168435e-06
2.0245682e-06
1.1067132e-06
5.8865081e-07
3.155482e-07
1.6849029e-07
8.7979851e-08
4.4782025e-08
2.2115608e-08
1.1070846e-08
5.5388793e-09
2.7069867e-09
1.2872856e-09
5.921391e-10
2.7774593e-10
1.3067706e-10
5.9992232e-11
2.6746667e-11
1.1495035e-11
5.0650999e-12
2.2447343e-12
9.6757304e-13
4.0325161e-13
1.6425399e-13
7.8019371e-14
5.6712637e-14
4.8394421e-14
4.1362698e-14
3.5172769e-14
2.9876775e-14
2.5343128e-14
2.1440318e-14
1.8087831e-14
1.5216139e-14
1.2797058e-14
1.0746884e-14
9.0005876e-15
7.516841e-15
6.2598647e-15
5.2132683e-15
4.3359065e-15
3.5962734e-15
2.9742543e-15
2.4527012e-15
2.0231499e-15
1.6666969e-15
1.369094e-15
1.1212395e-15
9.1543901e-16
7.4775471e-16
6.1001116e-16
4.9624572e-16
4.0343376e-16
0.85751087
0.80493445
0.78949607
0.75653078
0.72234383
0.6854112
0.64667296
0.60658473
0.56558025
0.52401311
0.48229005
0.44078432
0.39984213
0.3597922
0.32096767
0.28371804
0.24832066
0.21503551
0.18411433
0.15579123
0.13024052
0.10750697
0.087671984
0.070636175
0.056193925
0.044115047
0.034150655
0.02616326
0.01981141
0.014785984
0.010863589
0.0078493674
0.0056226096
0.0039802506
0.0027707414
0.0018942955
0.0012701089
0.00084657107
0.00055814034
0.00036125661
0.00022919641
0.00014224532
8.8092587e-05
5.4055744e-05
3.2517498e-05
1.9137938e-05
1.0989535e-05
6.3262064e-06
3.6168845e-06
2.0245841e-06
1.10672e-06
5.886541e-07
3.1555014e-07
1.6849162e-07
8.7980801e-08
4.4782707e-08
2.2116082e-08
1.1071173e-08
5.5391064e-09
2.7071414e-09
1.2873877e-09
5.9220335e-10
2.777858e-10
1.3070201e-10
6.0007593e-11
2.6755822e-11
1.15002e-11
5.0679703e-12
2.2463545e-12
9.6847346e-13
4.0373048e-13
1.6448297e-13
7.8103396e-14
5.6744358e-14
4.8418933e-14
4.1387886e-14
3.5198357e-14
2.9902409e-14
2.5368486e-14
2.1465082e-14
1.8111718e-14
1.5238771e-14
1.2818317e-14
1.0766653e-14
9.0187368e-15
7.5332872e-15
6.2744459e-15
5.2260654e-15
4.3470495e-15
3.6058584e-15
2.9823866e-15
2.459425e-15
2.0286427e-15
1.671159e-15
1.3726768e-15
1.1240744e-15
9.1761545e-16
7.4940167e-16
6.1125296e-16
4.9716397e-16
4.0343376e-16
0.85751087
0.81094935
0.79701665
0.76634539
0.73377797
0.69835228
0.66094378
0.6219608
0.58178933
0.54075233
0.49923525
0.4575952
0.41619533
0.37538571
0.33552905
0.29702132
0.26018189
0.22533409
0.19282364
0.16296069
0.13597817
0.11194095
0.09097419
0.073030498
0.057889496
0.045283549
0.034922141
0.026652545
0.020117359
0.014974051
0.010975935
0.0079129915
0.0056570957
0.003998883
0.0027806534
0.0018994001
0.0012725779
0.00084770907
0.00055866822
0.00036149831
0.00022930323
0.00014228935
8.8109801e-05
5.4062587e-05
3.2520197e-05
1.9138965e-05
1.0989899e-05
6.3263303e-06
3.6169292e-06
2.0246013e-06
1.1067273e-06
5.8865771e-07
3.1555226e-07
1.6849307e-07
8.798185e-08
4.4783464e-08
2.2116617e-08
1.1071542e-08
5.5393613e-09
2.7073158e-09
1.2875035e-09
5.9227722e-10
2.7783137e-10
1.3073041e-10
6.0025148e-11
2.6766334e-11
1.1506223e-11
5.0712947e-12
2.2482206e-12
9.6951534e-13
4.0428903e-13
1.6475806e-13
7.8211362e-14
5.6781988e-14
4.8444275e-14
4.1413733e-14
3.5224737e-14
2.9928837e-14
2.5394607e-14
2.1490601e-14
1.8136348e-14
1.5262175e-14
1.2840284e-14
1.0787067e-14
9.0374893e-15
7.5502923e-15
6.289569e-15
5.2393262e-15
4.3585876e-15
3.6157889e-15
2.9908182e-15
2.4664184e-15
2.0343496e-15
1.6757903e-15
1.3763972e-15
1.1270198e-15
9.198839e-16
7.5111583e-16
6.1254393e-16
4.981224e-16
4.0343376e-16
0.85751087
0.81720158
0.80381786
0.77555714
0.74459999
0.71069826
0.6746583
0.63685792
0.59762978
0.55726443
0.51611579
0.47451699
0.43281912
0.39138579
0.35060335
0.31090667
0.27265919
0.23624089
0.20209632
0.17062638
0.14213446
0.11671801
0.094539206
0.075614192
0.05971775
0.046543211
0.035756342
0.027180995
0.020446852
0.015176495
0.011096972
0.0079819893
0.0056944493
0.0040190324
0.0027913965
0.0019049493
0.0012752896
0.00084895738
0.00055924665
0.00036176414
0.00022942119
0.00014233858
8.8129005e-05
5.4070208e-05
3.2523215e-05
1.9140118e-05
1.0990314e-05
6.3264706e-06
3.6169796e-06
2.0246208e-06
1.1067356e-06
5.8866184e-07
3.1555468e-07
1.6849472e-07
8.7983054e-08
4.4784339e-08
2.2117246e-08
1.1071973e-08
5.5396584e-09
2.7075201e-09
1.2876397e-09
5.9236568e-10
2.7788557e-10
1.30764e-10
6.0046011e-11
2.6778893e-11
1.1513546e-11
5.0753043e-12
2.2504568e-12
9.7077032e-13
4.0496773e-13
1.6510299e-13
7.8355933e-14
5.6828575e-14
4.8470696e-14
4.1440374e-14
3.5252109e-14
2.9956256e-14
2.5421674e-14
2.1517061e-14
1.8161906e-14
1.528656e-14
1.2863143e-14
1.0808289e-14
9.0569985e-15
7.5680003e-15
6.305387e-15
5.2531792e-15
4.3706279e-15
3.6261603e-15
2.9996329e-15
2.473763e-15
2.0403334e-15
1.6806392e-15
1.3802944e-15
1.1301075e-15
9.2227258e-16
7.5291741e-16
6.1389849e-16
4.9912835e-16
4.0343376e-16
0.85751087
0.8233327
0.81006634
0.78410606
0.75477079
0.72239068
0.6877352
0.6511666
0.61296646
0.57338793
0.5327455
0.49134322
0.44949844
0.40757845
0.36598613
0.3251865
0.28558849
0.24762347
0.21183014
0.17871074
0.14865017
0.12179525
0.098339683
0.07836788
0.061663247
0.047881604
0.036643747
0.027742141
0.020795118
0.015389832
0.011224318
0.0080547587
0.0057337516
0.0040401655
0.00280266
0.0019107706
0.0012781485
0.00085027144
0.00055985469
0.00036204399
0.0002295456
0.00014239083
8.8149361e-05
5.4078277e-05
3.2526416e-05
1.9141343e-05
1.0990757e-05
6.3266202e-06
3.6170332e-06
2.0246415e-06
1.1067444e-06
5.8866625e-07
3.1555727e-07
1.6849649e-07
8.7984345e-08
4.4785281e-08
2.2117929e-08
1.107244e-08
5.5399799e-09
2.7077418e-09
1.2877881e-09
5.924628e-10
2.779449e-10
1.3080068e-10
6.0068843e-11
2.6792674e-11
1.1521649e-11
5.0797254e-12
2.252915e-12
9.721535e-13
4.0571902e-13
1.654905e-13
7.8523112e-14
5.6880721e-14
4.8497687e-14
4.1467364e-14
3.527995e-14
2.9984147e-14
2.5449187e-14
2.1543967e-14
1.8187907e-14
1.5311429e-14
1.2886441e-14
1.0829906e-14
9.0768826e-15
7.5860598e-15
6.3215632e-15
5.2673375e-15
4.3829259e-15
3.6367592e-15
3.0086468e-15
2.4812948e-15
2.0464654e-15
1.6856038e-15
1.384286e-15
1.1332714e-15
9.2472715e-16
7.5476681e-16
6.1528748e-16
5.0015902e-16
4.0343376e-16
0.85751087
0.82907767
0.8158426
0.79197309
0.7642553
0.7333779
0.70009988
0.66478123
0.62766077
0.58895058
0.54891992
0.50783956
0.4659746
0.4236876
0.38139143
0.33957451
0.29869104
0.25922317
0.22179597
0.18701727
0.15536193
0.12703927
0.1022756
0.081220581
0.063676003
0.049263964
0.037560274
0.028321221
0.021153228
0.015608537
0.011354614
0.008129258
0.0057739232
0.0040617076
0.0028141307
0.001916698
0.0012810665
0.00085161133
0.00056047398
0.00036232919
0.00022967249
0.00014244432
8.8170176e-05
5.4086521e-05
3.2529689e-05
1.9142597e-05
1.0991212e-05
6.3267731e-06
3.6170878e-06
2.0246625e-06
1.1067533e-06
5.8867071e-07
3.1555988e-07
1.6849829e-07
8.7985663e-08
4.4786247e-08
2.2118634e-08
1.1072923e-08
5.540312e-09
2.7079712e-09
1.2879419e-09
5.9256395e-10
2.7800661e-10
1.3083878e-10
6.0092596e-11
2.6807033e-11
1.153013e-11
5.0843449e-12
2.2554799e-12
9.7359881e-13
4.06506e-13
1.6589962e-13
7.8702289e-14
5.6935784e-14
4.8524754e-14
4.1494257e-14
3.5307756e-14
3.0012004e-14
2.5476656e-14
2.1570837e-14
1.8213883e-14
1.5336314e-14
1.2909747e-14
1.0851525e-14
9.0967743e-15
7.6041342e-15
6.3377802e-15
5.2815287e-15
4.3952484e-15
3.6473827e-15
3.0176854e-15
2.4888602e-15
2.0526229e-15
1.6905864e-15
1.3882927e-15
1.136448e-15
9.271955e-16
7.5662563e-16
6.1668246e-16
5.011909e-16
4.0343376e-16
0.85751087
0.8342601
0.82114948
0.79913663
0.77299235
0.7435734
0.71163659
0.67754872
0.64151706
0.60371272
0.5643568
0.5236843
0.48189189
0.43933234
0.39642439
0.35367517
0.31158236
0.27068133
0.23167545
0.19527489
0.16204698
0.1322719
0.10621301
0.084077502
0.065690502
0.050645771
0.038476139
0.028899938
0.02151026
0.015826021
0.011483952
0.0082031981
0.0058137561
0.0040830217
0.0028254676
0.0019225536
0.0012839525
0.00085293558
0.00056108548
0.00036261083
0.00022979785
0.00014249725
8.8190761e-05
5.4094667e-05
3.2532922e-05
1.9143835e-05
1.0991661e-05
6.3269235e-06
3.6171411e-06
2.0246829e-06
1.1067619e-06
5.8867498e-07
3.155624e-07
1.6850003e-07
8.7986948e-08
4.4787195e-08
2.211933e-08
1.10734e-08
5.540641e-09
2.7081989e-09
1.2880948e-09
5.9266485e-10
2.7806816e-10
1.3087677e-10
6.0116303e-11
2.682138e-11
1.1538626e-11
5.0889696e-12
2.258046e-12
9.7504614e-13
4.0729529e-13
1.6631179e-13
7.8884341e-14
5.699137e-14
4.8551273e-14
4.1520472e-14
3.5334897e-14
3.0039199e-14
2.5503467e-14
2.1597068e-14
1.8239247e-14
1.5360636e-14
1.2932525e-14
1.087265e-14
9.1162176e-15
7.621807e-15
6.3536533e-15
5.2954191e-15
4.4073076e-15
3.6577811e-15
3.0265351e-15
2.4962748e-15
2.0586572e-15
1.6954674e-15
1.3922176e-15
1.13956e-15
9.2961585e-16
7.5844786e-16
6.1804921e-16
5.0219676e-16
4.0343376e-16
0.85751087
0.83877642
0.82592626
0.80552951
0.7808555
0.75280588
0.72212953
0.68920296
0.6542126
0.6172928
0.57861748
0.53838573
0.49671522
0.45394555
0.41050182
0.36690775
0.32370192
0.28147574
0.24100341
0.20308688
0.16837994
0.13723509
0.10995697
0.086799503
0.067610827
0.051962446
0.039348916
0.029452094
0.021850605
0.016033006
0.011606901
0.0082734756
0.0058516107
0.004103248
0.0028362164
0.0019281033
0.0012866891
0.00085419085
0.00056166472
0.0003628776
0.00022991659
0.00014254742
8.8210258e-05
5.4102375e-05
3.2535979e-05
1.9145003e-05
1.0992083e-05
6.327064e-06
3.6171904e-06
2.0247014e-06
1.1067695e-06
5.8867875e-07
3.1556464e-07
1.685016e-07
8.7988126e-08
4.4788071e-08
2.2119979e-08
1.1073848e-08
5.5409508e-09
2.7084141e-09
1.2882396e-09
5.9276065e-10
2.7812664e-10
1.3091289e-10
6.0138863e-11
2.6835045e-11
1.1546732e-11
5.0933817e-12
2.2604939e-12
9.7642776e-13
4.0804953e-13
1.6670673e-13
7.9059663e-14
5.7044788e-14
4.8576322e-14
4.154513e-14
3.5360444e-14
3.0064799e-14
2.5528706e-14
2.1621765e-14
1.8263134e-14
1.5383554e-14
1.2953989e-14
1.0892556e-14
9.1345414e-15
7.6384661e-15
6.3686254e-15
5.3085225e-15
4.4186822e-15
3.6675901e-15
3.0348843e-15
2.503274e-15
2.0643534e-15
1.7000733e-15
1.3959208e-15
1.1424961e-15
9.3190034e-16
7.6016762e-16
6.1933852e-16
5.031388e-16
4.0343376e-16
0.85751087
0.84256925
0.83004667
0.81098989
0.78759535
0.76074953
0.73118115
0.69927278
0.66519781
0.62906136
0.59099595
0.55116582
0.50961536
0.46666292
0.42274706
0.37840919
0.33422556
0.29084453
0.24910259
0.2098754
0.17388698
0.1415543
0.11322371
0.089182195
0.069295317
0.053118554
0.040116168
0.029938868
0.022150997
0.016215679
0.011715398
0.0083355256
0.0058850657
0.0041211162
0.0028457087
0.0019330039
0.0012891066
0.00085529974
0.00056217619
0.00036311311
0.0002300214
0.00014259171
8.8227448e-05
5.410916e-05
3.2538663e-05
1.9146025e-05
1.0992449e-05
6.327184e-06
3.6172316e-06
2.0247164e-06
1.1067754e-06
5.8868155e-07
3.1556635e-07
1.6850285e-07
8.7989087e-08
4.4788803e-08
2.2120528e-08
1.1074233e-08
5.5412195e-09
2.7086017e-09
1.2883664e-09
5.9284478e-10
2.7817813e-10
1.3094474e-10
6.0158785e-11
2.6847126e-11
1.1553909e-11
5.09729e-12
2.2626631e-12
9.7765287e-13
4.0871893e-13
1.6705784e-13
7.9216027e-14
5.7092446e-14
4.8598451e-14
4.1566839e-14
3.5382944e-14
3.0087351e-14
2.555094e-14
2.1643523e-14
1.8284183e-14
1.5403759e-14
1.2972913e-14
1.0910107e-14
9.1506985e-15
7.6531578e-15
6.381834e-15
5.3200836e-15
4.4287167e-15
3.6762432e-15
3.0422499e-15
2.5094497e-15
2.0693792e-15
1.7041357e-15
1.3991863e-15
1.1450847e-15
9.3391455e-16
7.6168383e-16
6.2047479e-16
5.0396047e-16
4.0343376e-16
0.85751087
0.84558435
0.83328384
0.81518938
0.79275004
0.76681975
0.73809292
0.70694869
0.6735517
0.63798819
0.60036073
0.56080621
0.51931122
0.47617241
0.43185103
0.38690921
0.34195638
0.29769412
0.25500781
0.21481976
0.17789613
0.14469948
0.11561134
0.090934068
0.070540359
0.053976188
0.040687438
0.030303594
0.022377149
0.016353579
0.011797461
0.0083825606
0.0059105013
0.0041347182
0.0028529399
0.0019367394
0.0012909507
0.00085614609
0.00056256651
0.00036329278
0.00023010131
0.00014262543
8.8240511e-05
5.4114297e-05
3.2540684e-05
1.9146785e-05
1.0992716e-05
6.3272681e-06
3.6172587e-06
2.0247252e-06
1.1067784e-06
5.8868273e-07
3.1556717e-07
1.6850354e-07
8.7989676e-08
4.4789282e-08
2.2120903e-08
1.1074506e-08
5.5414145e-09
2.7087397e-09
1.2884606e-09
5.9290772e-10
2.7821691e-10
1.3096883e-10
6.0173898e-11
2.6856312e-11
1.1559375e-11
5.1002722e-12
2.2643201e-12
9.7858966e-13
4.0923133e-13
1.6732698e-13
7.9336148e-14
5.7129142e-14
4.8615408e-14
4.1583422e-14
3.5400135e-14
3.0104587e-14
2.5567934e-14
2.1660158e-14
1.8300279e-14
1.5419213e-14
1.298739e-14
1.0923533e-14
9.1630591e-15
7.6643983e-15
6.391941e-15
5.3289303e-15
4.4363935e-15
3.6828618e-15
3.0478828e-15
2.5141718e-15
2.0732212e-15
1.7072396e-15
1.4016802e-15
1.1470608e-15
9.3545184e-16
7.6284093e-16
6.2134157e-16
5.0457639e-16
4.0343376e-16
0.85751087
0.84769681
0.83522484
0.81751719
0.79550748
0.77001755
0.74169198
0.71089221
0.67777686
0.64242765
0.60493572
0.56542658
0.52385887
0.48051708
0.43589417
0.3905743
0.34519173
0.30048981
0.25737884
0.21678775
0.1794837
0.1459438
0.11656925
0.091653942
0.071063596
0.054342744
0.040935663
0.030466081
0.022480039
0.016417195
0.011835703
0.0084046892
0.0059226113
0.004141241
0.0028564231
0.0019385447
0.0012918441
0.00085655712
0.00056275616
0.00036337999
0.00023013999
0.00014264165
8.8246739e-05
5.4116711e-05
3.2541607e-05
1.9147115e-05
1.0992818e-05
6.3272934e-06
3.6172629e-06
2.024724e-06
1.1067766e-06
5.8868133e-07
3.1556655e-07
1.6850334e-07
8.7989663e-08
4.4789351e-08
2.2120993e-08
1.1074595e-08
5.5414881e-09
2.7087959e-09
1.2885009e-09
5.9293548e-10
2.7823455e-10
1.3098002e-10
6.0181002e-11
2.686067e-11
1.1561985e-11
5.1017066e-12
2.2651212e-12
9.7904413e-13
4.0948067e-13
1.6745825e-13
7.9394892e-14
5.7147246e-14
4.8623785e-14
4.1591575e-14
3.540859e-14
3.0113069e-14
2.5576302e-14
2.1668352e-14
1.8308213e-14
1.5426834e-14
1.2994531e-14
1.0930156e-14
9.1691547e-15
7.6699413e-15
6.3969237e-15
5.3332906e-15
4.440174e-15
3.6861182e-15
3.050652e-15
2.5164904e-15
2.075106e-15
1.7087601e-15
1.4029001e-15
1.148026e-15
9.3620181e-16
7.6340526e-16
6.2176392e-16
5.0486003e-16
4.0343376e-16
0.85751087
0.84858209
0.83511739
0.81690084
0.79450402
0.76870908
0.74009088
0.70897589
0.67552349
0.63983351
0.60201368
0.56220477
0.52038601
0.47685222
0.43213102
0.38682242
0.34156837
0.29713129
0.25440367
0.21426175
0.17741804
0.14432114
0.11536724
0.09080857
0.070487196
0.053958519
0.040688338
0.030316734
0.022391981
0.01636538
0.011805697
0.0083879373
0.0059138587
0.004136663
0.0028540231
0.0019373175
0.0012912423
0.00085628307
0.0005626299
0.0003633216
0.00023011376
0.00014263031
8.8242206e-05
5.4114837e-05
3.2540804e-05
1.914677e-05
1.0992663e-05
6.3272275e-06
3.6172318e-06
2.0247076e-06
1.1067676e-06
5.8867602e-07
3.1556375e-07
1.6850178e-07
8.7988724e-08
4.4788786e-08
2.212064e-08
1.1074397e-08
5.5413721e-09
2.7087238e-09
1.2884565e-09
5.9290788e-10
2.7821892e-10
1.3097087e-10
6.0175476e-11
2.6857409e-11
1.1560083e-11
5.1006955e-12
2.2645698e-12
9.78736e-13
4.0931381e-13
1.6737112e-13
7.9356182e-14
5.7135807e-14
4.8618619e-14
4.1586461e-14
3.5403289e-14
3.0107767e-14
2.5571084e-14
2.1663252e-14
1.8303288e-14
1.5422111e-14
1.2990111e-14
1.0926055e-14
9.1653768e-15
7.6665047e-15
6.3938287e-15
5.3305787e-15
4.4378142e-15
3.6840771e-15
3.0489095e-15
2.5150229e-15
2.0739083e-15
1.7077881e-15
1.4021154e-15
1.1474014e-15
9.3571367e-16
7.6303753e-16
6.2148771e-16
5.0462876e-16
4.0343376e-16
0.85751087
0.84750599
0.83164398
0.81156047
0.78755964
0.76034033
0.73038121
0.69795567
0.66324658
0.62641071
0.58761283
0.54704822
0.50478786
0.46117199
0.41675105
0.37211915
0.32789329
0.28481845
0.24369547
0.20526066
0.17010085
0.13858224
0.11106473
0.087710738
0.068321516
0.052484515
0.039718722
0.029710787
0.022022732
0.016142723
0.011674295
0.008313227
0.005873908
0.0041154346
0.0028427791
0.0019315243
0.0012883863
0.00085497504
0.00056202648
0.00036304318
0.00022998938
0.0001425773
8.8221406e-05
5.4106486e-05
3.2537398e-05
1.9145406e-05
1.0992123e-05
6.3270249e-06
3.6171483e-06
2.0246688e-06
1.1067481e-06
5.8866499e-07
3.1555776e-07
1.6849821e-07
8.7986416e-08
4.4787277e-08
2.2119626e-08
1.107377e-08
5.5409709e-09
2.7084585e-09
1.2882845e-09
5.9279676e-10
2.7815303e-10
1.3093098e-10
6.015085e-11
2.6842623e-11
1.1551352e-11
5.0959824e-12