# vtk DataFile Version 3.0
Local 2D buoyant multi-species transport-check field
ASCII
DATASET STRUCTURED_POINTS
DIMENSIONS 121 33 1
ORIGIN 0 -0.6 0
SPACING 10 0.0375 1
POINT_DATA 3993
SCALARS x_H2 float 1
LOOKUP_TABLE default
0.85751087
0.83695879
0.81447935
0.79007105
0.76376393
0.73562205
0.70574509
0.67426887
0.64136476
0.60723783
0.57212377
0.53628454
0.50000292
0.46357616
0.42730876
0.39150497
0.356461
0.32245747
0.28975239
0.2585749
0.2291201
0.20154521
0.17596707
0.15246126
0.13106252
0.11176676
0.094534104
0.07929303
0.065945271
0.054371139
0.044435073
0.035991109
0.028888056
0.022974168
0.018101187
0.014127666
0.010921521
0.0083618313
0.0063399317
0.0047598697
0.003538331
0.0026041355
0.0018974156
0.0013685809
0.00097716135
0.00069060831
0.00048311697
0.00033451554
0.0002292533
0.00015550529
0.00010440065
6.9373061e-05
4.5626e-05
2.9701265e-05
1.9137643e-05
1.2205782e-05
7.7058684e-06
4.8158544e-06
2.9794817e-06
1.8249296e-06
1.1066586e-06
6.6446055e-07
3.9503924e-07
2.3257115e-07
1.3559588e-07
7.8296783e-08
4.4779681e-08
2.5368312e-08
1.4236733e-08
7.9153965e-09
4.3602819e-09
2.3799751e-09
1.2873091e-09
6.9005305e-10
3.6661281e-10
1.9306055e-10
1.0077972e-10
5.2152466e-11
2.6755802e-11
1.3608306e-11
6.8611916e-12
3.4285603e-12
1.697293e-12
8.3182443e-13
4.0379204e-13
1.9665072e-13
1.0033013e-13
6.4995516e-14
5.3762569e-14
4.7189266e-14
4.1410985e-14
3.622763e-14
3.162979e-14
2.7579242e-14
2.4015482e-14
2.088293e-14
1.8133294e-14
1.5723551e-14
1.3614945e-14
1.1772648e-14
1.016547e-14
8.7655315e-15
7.5479457e-15
6.490541e-15
5.5736019e-15
4.779633e-15
4.0931407e-15
3.5004317e-15
2.9894281e-15
2.5494968e-15
2.1712945e-15
1.8466251e-15
1.568311e-15
1.3300772e-15
1.1264465e-15
9.5264524e-16
8.0451986e-16
6.7846177e-16
5.7134084e-16
4.8044619e-16
4.0343376e-16
0.85751087
0.82404763
0.79695894
0.76952499
0.74029567
0.70937891
0.67693117
0.64318221
0.60839511
0.57285455
0.53685866
0.50071427
0.46473498
0.42917257
0.39425949
0.36023535
0.32731996
0.29570931
0.26557326
0.23705369
0.21026343
0.18528575
0.16217469
0.14095591
0.12162822
0.10416554
0.088519168
0.074620443
0.062383481
0.051708145
0.042483103
0.034588963
0.027901418
0.022294328
0.017642629
0.013824977
0.010726038
0.0082383381
0.0062636297
0.0047137658
0.0035110906
0.0025883978
0.0018885256
0.0013636709
0.00097450997
0.00068920862
0.00048239466
0.00033415124
0.00022907379
0.00015541891
0.00010436009
6.9354511e-05
4.5617753e-05
2.9697716e-05
1.9136175e-05
1.2205206e-05
7.7056595e-06
4.8157888e-06
2.9794674e-06
1.824931e-06
1.106663e-06
6.6446415e-07
3.950414e-07
2.3257212e-07
1.355961e-07
7.8296591e-08
4.4779311e-08
2.5367899e-08
1.4236348e-08
7.9150705e-09
4.3600217e-09
2.3797761e-09
1.2871621e-09
6.8994738e-10
3.6653867e-10
1.9300963e-10
1.0074544e-10
5.2129808e-11
2.6741085e-11
1.3598906e-11
6.8552855e-12
3.4249082e-12
1.6950706e-12
8.3049588e-13
4.0302052e-13
1.9622353e-13
1.0014571e-13
6.492659e-14
5.3714685e-14
4.7140209e-14
4.1360275e-14
3.6176152e-14
3.1578238e-14
2.7528035e-14
2.3965019e-14
2.0833619e-14
1.8085527e-14
1.5677684e-14
1.357129e-14
1.1731467e-14
1.0126972e-14
8.7298658e-15
7.5152053e-15
6.4607619e-15
5.5467668e-15
4.7556765e-15
4.0719549e-15
3.4818738e-15
2.9733276e-15
2.5356644e-15
2.159527e-15
1.8367128e-15
1.5600444e-15
1.3232524e-15
1.1208691e-15
9.4813407e-16
8.009089e-16
6.7560171e-16
5.691009e-16
4.7875696e-16
4.0343376e-16
0.85751087
0.81507361
0.78499214
0.75552991
0.72434919
0.69158624
0.65744272
0.62221324
0.58622188
0.54980433
0.51329686
0.47703186
0.44133776
0.4064307
0.37248806
0.33970298
0.30824224
0.27824478
0.24982244
0.22306092
0.19802102
0.17474014
0.15323396
0.13349825
0.11551071
0.099232804
0.084611401
0.071580414
0.06006229
0.049969527
0.041206258
0.033669991
0.027253532
0.021847081
0.017340432
0.013625181
0.01059682
0.0081566018
0.0062130715
0.0046831881
0.0034930094
0.0025779449
0.0018826179
0.0013604068
0.00097274699
0.00068827783
0.00048191436
0.00033390906
0.0002289545
0.00015536156
0.00010433321
6.934224e-05
4.5612318e-05
2.9695391e-05
1.9135224e-05
1.220484e-05
7.7055321e-06
4.8157527e-06
2.9794628e-06
1.824935e-06
1.1066679e-06
6.644678e-07
3.950436e-07
2.3257325e-07
1.3559653e-07
7.8296635e-08
4.4779166e-08
2.5367684e-08
1.4236127e-08
7.9148735e-09
4.3598598e-09
2.3796501e-09
1.2870677e-09
6.8987899e-10
3.6649038e-10
1.9297632e-10
1.0072293e-10
5.2114887e-11
2.6731374e-11
1.3592694e-11
6.8513769e-12
3.422489e-12
1.6935973e-12
8.296146e-13
4.0250855e-13
1.9594003e-13
1.0002344e-13
6.4880889e-14
5.368283e-14
4.7107543e-14
4.1326508e-14
3.6141875e-14
3.1543912e-14
2.749394e-14
2.3931419e-14
2.0800788e-14
1.8053726e-14
1.5647149e-14
1.3542229e-14
1.1704055e-14
1.0101347e-14
8.7061286e-15
7.4934169e-15
6.4409459e-15
5.5289115e-15
4.7397377e-15
4.0578608e-15
3.469529e-15
2.9626183e-15
2.5264642e-15
2.1517008e-15
1.8301207e-15
1.5545471e-15
1.3187139e-15
1.1171602e-15
9.4513419e-16
7.985076e-16
6.7369971e-16
5.6761135e-16
4.776377e-16
4.0343376e-16
0.85751087
0.80901733
0.77746538
0.74674824
0.7143831
0.68049791
0.64533474
0.60922997
0.57254497
0.5356447
0.49888532
0.46260998
0.42714921
0.39269703
0.35939318
0.32740048
0.29685193
0.26785125
0.24047541
0.21477711
0.19078734
0.16851776
0.14796306
0.12910305
0.11190457
0.096322998
0.082303565
0.069782301
0.058686848
0.048937188
0.040446452
0.033121915
0.026866267
0.021579164
0.017159032
0.013505019
0.010518968
0.0081072802
0.0061825217
0.0046646897
0.0034820603
0.0025716101
0.0018790354
0.0013584266
0.00097167716
0.00068771296
0.00048162293
0.00033376218
0.00022888223
0.00015532687
0.00010431698
6.9334865e-05
4.5609073e-05
2.9694019e-05
1.9134673e-05
1.2204636e-05
7.7054671e-06
4.8157389e-06
2.9794652e-06
1.8249409e-06
1.106673e-06
6.6447135e-07
3.9504577e-07
2.3257443e-07
1.355971e-07
7.8296845e-08
4.4779187e-08
2.5367617e-08
1.4236029e-08
7.9147749e-09
4.3597735e-09
2.3795803e-09
1.2870142e-09
6.8983951e-10
3.6646216e-10
1.9295668e-10
1.0070958e-10
5.2105993e-11
2.6725562e-11
1.3588965e-11
6.8490255e-12
3.4210308e-12
1.692708e-12
8.2908203e-13
4.0219891e-13
1.957685e-13
9.9949581e-14
6.4853287e-14
5.3663485e-14
4.7087672e-14
4.1305964e-14
3.612102e-14
3.1523026e-14
2.7473193e-14
2.3910974e-14
2.078081e-14
1.8034374e-14
1.5628569e-14
1.3524546e-14
1.1687376e-14
1.0085756e-14
8.6916872e-15
7.4801623e-15
6.4288924e-15
5.5180519e-15
4.7300451e-15
4.0492911e-15
3.462024e-15
2.9561085e-15
2.5208726e-15
2.1469448e-15
1.8261153e-15
1.5512071e-15
1.3159568e-15
1.1149073e-15
9.43312e-16
7.9704908e-16
6.7254449e-16
5.6670674e-16
4.7696131e-16
4.0343376e-16
0.85751087
0.80519855
0.77342649
0.74204496
0.70908595
0.67462954
0.63895583
0.60242481
0.56541742
0.52831202
0.49147179
0.45524049
0.41994272
0.3857635
0.35282105
0.32126137
0.29119904
0.26271931
0.23588151
0.21072226
0.1872585
0.16549028
0.14540322
0.12697064
0.11015527
0.094910597
0.081181836
0.068906589
0.05801531
0.048431713
0.040073253
0.032851832
0.026674798
0.021446273
0.017068776
0.013445058
0.010480018
0.0080825446
0.0061671683
0.0046553763
0.0034765394
0.0025684121
0.0018772253
0.0013574254
0.00097113615
0.00068742736
0.00048147568
0.00033368806
0.00022884584
0.00015530946
0.00010430889
6.9331223e-05
4.5607496e-05
2.969337e-05
1.9134426e-05
1.2204555e-05
7.7054486e-06
4.8157414e-06
2.9794726e-06
1.8249478e-06
1.1066781e-06
6.6447471e-07
3.9504783e-07
2.3257563e-07
1.3559774e-07
7.8297167e-08
4.4779325e-08
2.5367658e-08
1.4236023e-08
7.9147499e-09
4.3597439e-09
2.3795529e-09
1.2869915e-09
6.8982194e-10
3.664492e-10
1.9294745e-10
1.0070319e-10
5.2101687e-11
2.6722723e-11
1.358713e-11
6.8478615e-12
3.4203058e-12
1.6922642e-12
8.2881551e-13
4.0204364e-13
1.9568237e-13
9.9912632e-14
6.4839496e-14
5.3653695e-14
4.7077571e-14
4.1295518e-14
3.6110414e-14
3.1512404e-14
2.746264e-14
2.3900572e-14
2.0770644e-14
1.8024526e-14
1.5619113e-14
1.3515546e-14
1.1678887e-14
1.0077822e-14
8.6843381e-15
7.4734178e-15
6.4227601e-15
5.512528e-15
4.725116e-15
4.0449342e-15
3.4582094e-15
2.9528008e-15
2.5180322e-15
2.1445295e-15
1.8240816e-15
1.5495118e-15
1.3145577e-15
1.1137642e-15
9.423877e-16
7.9630937e-16
6.7195869e-16
5.6624812e-16
4.766212e-16
4.0343376e-16
0.85751087
0.8031145
0.77206874
0.74046491
0.70735532
0.67273721
0.63692684
0.60029394
0.56322596
0.52610362
0.48928863
0.45311927
0.41791037
0.38384836
0.35104381
0.31963663
0.28973485
0.26141772
0.23473949
0.20973265
0.18641115
0.16477304
0.14480293
0.12647386
0.10974889
0.094582192
0.080919894
0.068700609
0.057855831
0.048310301
0.03998249
0.032785287
0.026627003
0.021412675
0.017045679
0.013429541
0.010469834
0.0080760186
0.0061630854
0.0046528828
0.0034750531
0.0025675474
0.0018767344
0.0013571535
0.00097098914
0.00068734988
0.00048143589
0.00033366819
0.0002288362
0.00015530495
0.00010430686
6.933036e-05
4.560716e-05
2.9693259e-05
1.9134404e-05
1.2204563e-05
7.705464e-06
4.8157555e-06
2.9794834e-06
1.8249552e-06
1.106683e-06
6.6447785e-07
3.9504977e-07
2.3257679e-07
1.3559843e-07
7.8297559e-08
4.4779543e-08
2.5367775e-08
1.4236083e-08
7.9147783e-09
4.3597559e-09
2.3795566e-09
1.2869915e-09
6.8982059e-10
3.6644753e-10
1.9294594e-10
1.0070199e-10
5.2100795e-11
2.6722095e-11
1.3586705e-11
6.8475823e-12
3.4201271e-12
1.6921525e-12
8.2874737e-13
4.0200349e-13
1.9565994e-13
9.9903214e-14
6.4836013e-14
5.3651034e-14
4.7074762e-14
4.1292607e-14
3.6107457e-14
3.1509439e-14
2.7459692e-14
2.3897664e-14
2.07678e-14
1.8021769e-14
1.5616464e-14
1.3513024e-14
1.1676508e-14
1.0075598e-14
8.6822785e-15
7.4715284e-15
6.421043e-15
5.5109824e-15
4.723738e-15
4.0437174e-15
3.4571454e-15
2.9518795e-15
2.5172419e-15
2.1438583e-15
1.8235171e-15
1.5490417e-15
1.3141702e-15
1.113448e-15
9.4213226e-16
7.9610513e-16
6.7179708e-16
5.6612172e-16
4.7653048e-16
4.0343376e-16
0.85751087
0.80237306
0.77271865
0.74121619
0.70827984
0.67379703
0.63811802
0.6016118
0.56466307
0.52764744
0.49092002
0.45481067
0.41962343
0.38555315
0.35271394
0.32124769
0.29126474
0.26284744
0.23605379
0.21092057
0.18746623
0.16569341
0.14559099
0.12713585
0.11029419
0.095022472
0.081268233
0.068970597
0.058060793
0.048462681
0.040093421
0.032864358
0.026682181
0.02145037
0.017070887
0.013446041
0.010480406
0.0080826481
0.0061671546
0.0046553276
0.0034764909
0.0025683752
0.0018772009
0.001357411
0.00097112836
0.00068742363
0.00048147421
0.00033368773
0.000228846
0.00015530979
0.00010430923
6.9331515e-05
4.5607723e-05
2.9693537e-05
1.9134545e-05
1.2204636e-05
7.7055034e-06
4.8157776e-06
2.9794962e-06
1.8249629e-06
1.1066877e-06
6.6448074e-07
3.9505156e-07
2.3257791e-07
1.3559912e-07
7.8297992e-08
4.4779813e-08
2.5367944e-08
1.4236189e-08
7.9148444e-09
4.3597973e-09
2.3795827e-09
1.287008e-09
6.8983093e-10
3.6645403e-10
1.9295001e-10
1.0070453e-10
5.2102379e-11
2.6723073e-11
1.3587304e-11
6.8479461e-12
3.4203458e-12
1.6922825e-12
8.288236e-13
4.0204715e-13
1.9568389e-13
9.9913864e-14
6.484005e-14
5.3653566e-14
4.7077257e-14
4.1295178e-14
3.6110063e-14
3.1512046e-14
2.7462277e-14
2.3900209e-14
2.0770283e-14
1.8024172e-14
1.5618769e-14
1.3515216e-14
1.1678574e-14
1.0077529e-14
8.6840674e-15
7.4731709e-15
6.4225378e-15
5.5123304e-15
4.7249427e-15
4.0447842e-15
3.4580814e-15
2.9526929e-15
2.5179419e-15
2.1444547e-15
1.8240203e-15
1.549462e-15
1.3145177e-15
1.1137325e-15
9.4236272e-16
7.9628987e-16
6.719436e-16
5.6623661e-16
4.7662017e-16
4.0343376e-16
0.85751087
0.80266166
0.77482411
0.7436545
0.71112056
0.67698286
0.64162276
0.6054008
0.56869243
0.53186329
0.49525908
0.45920032
0.42398109
0.38980818
0.3568077
0.3251293
0.29489196
0.2661875
0.23908387
0.21362787
0.18984763
0.16775471
0.1473459
0.12860462
0.11150206
0.095998019
0.082041684
0.069572308
0.058519921
0.04880616
0.04034526
0.03304526
0.026809447
0.021538028
0.017129983
0.013485028
0.010505568
0.0080985349
0.0061769654
0.0046612531
0.0034799911
0.0025703973
0.0018783435
0.0013580425
0.00097146984
0.00068760429
0.00048156775
0.00033373515
0.00022886955
0.00015532126
0.00010431471
6.9334094e-05
4.560892e-05
2.9694088e-05
1.9134798e-05
1.2204754e-05
7.7055592e-06
4.815805e-06
2.9795104e-06
1.8249706e-06
1.1066921e-06
6.6448339e-07
3.9505322e-07
2.3257897e-07
1.3559981e-07
7.8298446e-08
4.4780115e-08
2.5368146e-08
1.4236325e-08
7.9149363e-09
4.3598592e-09
2.3796243e-09
1.2870358e-09
6.8984946e-10
3.6646627e-10
1.9295803e-10
1.0070973e-10
5.2105713e-11
2.6725187e-11
1.3588629e-11
6.8487656e-12
3.4208461e-12
1.6925838e-12
8.2900224e-13
4.0215028e-13
1.9574077e-13
9.9938812e-14
6.4849458e-14
5.365978e-14
4.7083503e-14
4.1301625e-14
3.6116605e-14
3.1518594e-14
2.7468778e-14
2.3906611e-14
2.0776536e-14
1.8030225e-14
1.5624579e-14
1.3520744e-14
1.1683787e-14
1.0082401e-14
8.6885801e-15
7.4773132e-15
6.4263054e-15
5.515726e-15
4.7279748e-15
4.0474665e-15
3.4604319e-15
2.9547333e-15
2.5196957e-15
2.1459473e-15
1.8252782e-15
1.5505117e-15
1.3153848e-15
1.1144415e-15
9.4293654e-16
7.9674947e-16
6.7230783e-16
5.6652195e-16
4.7683697e-16
4.0343376e-16
0.85751087
0.80373034
0.77794168
0.74726649
0.71529086
0.6816422
0.64672909
0.61089809
0.57451091
0.53792018
0.5014607
0.46544389
0.43015559
0.39581523
0.36256678
0.33057136
0.29996095
0.27084113
0.24329405
0.21738041
0.19314153
0.17060098
0.14976592
0.13062823
0.1131654
0.097341314
0.083107019
0.07040163
0.059153332
0.049280598
0.04069361
0.033295879
0.026986052
0.021659876
0.017212268
0.0135394
0.010540717
0.0081207581
0.0061907069
0.0046695622
0.0034849041
0.0025732379
0.0018799495
0.0013589305
0.00097195
0.00068785825
0.00048169916
0.00033380169
0.00022890253
0.00015533727
0.00010432233
6.9337647e-05
4.5610551e-05
2.9694826e-05
1.9135129e-05
1.2204901e-05
7.7056258e-06
4.8158358e-06
2.9795252e-06
1.8249782e-06
1.1066963e-06
6.6448584e-07
3.9505475e-07
2.3257997e-07
1.3560048e-07
7.8298908e-08
4.4780436e-08
2.536837e-08
1.4236481e-08
7.9150451e-09
4.3599347e-09
2.3796764e-09
1.2870714e-09
6.8987358e-10
3.6648244e-10
1.9296875e-10
1.0071675e-10
5.2110251e-11
2.6728084e-11
1.3590453e-11
6.8498993e-12
3.4215409e-12
1.6930036e-12
8.2925171e-13
4.0229459e-13
1.958205e-13
9.9973748e-14
6.4862635e-14
5.3668531e-14
4.7092317e-14
4.1310725e-14
3.6125842e-14
3.1527842e-14
2.747796e-14
2.3915656e-14
2.0785372e-14
1.8038782e-14
1.5632792e-14
1.3528559e-14
1.1691157e-14
1.008929e-14
8.6949607e-15
7.4831697e-15
6.4316319e-15
5.5205259e-15
4.73226e-15
4.0512566e-15
3.4637524e-15
2.9576147e-15
2.5221718e-15
2.1480542e-15
1.8270534e-15
1.5519926e-15
1.3166078e-15
1.1154413e-15
9.4374556e-16
7.973973e-16
6.7282116e-16
5.6692403e-16
4.7714082e-16
4.0343376e-16
0.85751087
0.80538074
0.78172298
0.75165239
0.72033552
0.68727127
0.65289042
0.61752177
0.58151026
0.54519355
0.50889478
0.47291692
0.43753949
0.40299337
0.36944368
0.33706517
0.3060055
0.27638685
0.24830826
0.22184705
0.19706019
0.17398546
0.15264227
0.13303248
0.11514096
0.09893632
0.084371729
0.071386037
0.059905159
0.049843754
0.041107149
0.033593455
0.027195798
0.021804634
0.017310058
0.013604043
0.01058252
0.0081471991
0.0062070625
0.0046794553
0.0034907554
0.0025766219
0.0018818632
0.0013599887
0.00097252224
0.00068816091
0.00048185573
0.00033388092
0.00022894177
0.00015535629
0.00010433135
6.9341848e-05
4.5612469e-05
2.9695687e-05
1.913551e-05
1.2205069e-05
7.7056993e-06
4.8158686e-06
2.9795403e-06
1.8249856e-06
1.1067002e-06
6.6448811e-07
3.9505617e-07
2.3258091e-07
1.3560114e-07
7.829937e-08
4.4780766e-08
2.5368606e-08
1.423665e-08
7.9151648e-09
4.3600191e-09
2.3797353e-09
1.2871122e-09
6.8990141e-10
3.6650123e-10
1.9298127e-10
1.0072499e-10
5.2115597e-11
2.6731507e-11
1.3592614e-11
6.8512452e-12
3.4223671e-12
1.6935034e-12
8.2954916e-13
4.0246684e-13
1.9591579e-13
1.0001561e-13
6.4878457e-14
5.3678987e-14
4.7102824e-14
4.1321574e-14
3.6136855e-14
3.1538871e-14
2.7488912e-14
2.3926447e-14
2.0795913e-14
1.8048991e-14
1.5642593e-14
1.3537885e-14
1.1699953e-14
1.0097511e-14
8.7025765e-15
7.49016e-15
6.4379894e-15
5.5262547e-15
4.7373742e-15
4.0557794e-15
3.4677145e-15
2.9610525e-15
2.5251257e-15
2.1505675e-15
1.8291708e-15
1.5537588e-15
1.3180663e-15
1.1166335e-15
9.4471011e-16
7.9816959e-16
6.7343303e-16
5.6740327e-16
4.7750252e-16
4.0343376e-16
0.85751087
0.80745782
0.78590062
0.75650845
0.72590993
0.69349047
0.6596971
0.62483851
0.58924082
0.55322535
0.51710314
0.48116921
0.44569846
0.4109309
0.37705396
0.34425681
0.31270425
0.28253661
0.25387162
0.22680501
0.20141124
0.17774401
0.15583661
0.13570218
0.11733405
0.10070625
0.085774452
0.072477256
0.060738062
0.050467258
0.041564733
0.033922543
0.027427641
0.021964574
0.017418065
0.013675419
0.010628667
0.0081763836
0.0062251135
0.0046903735
0.003497213
0.0025803565
0.0018839752
0.0013611566
0.00097315383
0.00068849494
0.00048202851
0.00033396835
0.00022898505
0.00015537725
0.0001043413
6.9346466e-05
4.5614571e-05
2.9696626e-05
1.9135923e-05
1.2205248e-05
7.7057771e-06
4.8159025e-06
2.9795555e-06
1.8249928e-06
1.106704e-06
6.6449024e-07
3.9505751e-07
2.3258181e-07
1.3560177e-07
7.8299829e-08
4.4781099e-08
2.5368849e-08
1.4236826e-08
7.9152914e-09
4.3601092e-09
2.3797987e-09
1.2871562e-09
6.8993169e-10
3.6652174e-10
1.9299499e-10
1.0073403e-10
5.2121482e-11
2.6735282e-11
1.3595002e-11
6.8527335e-12
3.4232818e-12
1.6940573e-12
8.2987904e-13
4.0265806e-13
1.9602171e-13
1.000624e-13
6.4896208e-14
5.3690568e-14
4.7114398e-14
4.1333524e-14
3.614899e-14
3.1551023e-14
2.7500982e-14
2.3938339e-14
2.0807532e-14
1.8060245e-14
1.5653398e-14
1.3548168e-14
1.1709652e-14
1.0106578e-14
8.7109752e-15
7.4978694e-15
6.4450012e-15
5.532573e-15
4.7430148e-15
4.0607677e-15
3.4720842e-15
2.9648438e-15
2.5283832e-15
2.153339e-15
1.8315057e-15
1.5557063e-15
1.3196745e-15
1.117948e-15
9.4577355e-16
7.9902102e-16
6.7410757e-16
5.6793159e-16
4.7790158e-16
4.0343376e-16
0.85751087
0.80984327
0.79027403
0.76160996
0.73176023
0.70002139
0.66685024
0.63253405
0.59737881
0.56168853
0.52576158
0.4898852
0.45433082
0.41934487
0.38513635
0.3519086
0.31984397
0.2891017
0.25981918
0.23211179
0.20607292
0.18177369
0.15926275
0.13856592
0.11968611
0.10260365
0.087277186
0.07364528
0.061628712
0.051133284
0.04205299
0.034273312
0.027674505
0.022134715
0.017532863
0.013751227
0.01067765
0.0082073454
0.0062442561
0.0047019483
0.0035040575
0.0025843144
0.0018862133
0.0013623942
0.00097382313
0.00068884892
0.00048221162
0.000334061
0.00022903091
0.00015539946
0.00010435183
6.9351352e-05
4.5616792e-05
2.9697617e-05
1.9136357e-05
1.2205436e-05
7.7058574e-06
4.8159371e-06
2.9795708e-06
1.8249999e-06
1.1067075e-06
6.6449226e-07
3.9505878e-07
2.3258268e-07
1.356024e-07
7.8300284e-08
4.4781436e-08
2.5369096e-08
1.4237007e-08
7.9154226e-09
4.3602031e-09
2.3798652e-09
1.2872026e-09
6.8996363e-10
3.6654345e-10
1.9300953e-10
1.0074364e-10
5.2127743e-11
2.6739302e-11
1.3597547e-11
6.8543219e-12
3.4242587e-12
1.6946493e-12
8.302319e-13
4.0286283e-13
1.9613533e-13
1.0011304e-13
6.4915538e-14
5.3702906e-14
4.7126614e-14
4.1346132e-14
3.6161795e-14
3.1563851e-14
2.7513723e-14
2.3950895e-14
2.0819801e-14
1.8072129e-14
1.5664809e-14
1.3559029e-14
1.1719897e-14
1.0116156e-14
8.7198484e-15
7.5060149e-15
6.4524101e-15
5.5392497e-15
4.7489755e-15
4.0660393e-15
3.4767023e-15
2.9688507e-15
2.5318261e-15
2.1562683e-15
1.8339736e-15
1.5577648e-15
1.3213743e-15
1.1193374e-15
9.4689753e-16
7.9992089e-16
6.7482046e-16
5.6848998e-16
4.7832433e-16
4.0343376e-16
0.85751087
0.8124513
0.79469542
0.7667954
0.73770494
0.70666591
0.67413813
0.64038715
0.60569796
0.57035652
0.53464782
0.49885091
0.46323422
0.42804793
0.3935204
0.35986804
0.3272904
0.29596561
0.2660512
0.23768306
0.21097464
0.18601594
0.16287247
0.14158423
0.12216504
0.10460257
0.088859141
0.074873626
0.062564209
0.051831892
0.042564396
0.034640182
0.027932339
0.022312183
0.017652462
0.013830122
0.01072858
0.008239514
0.0062641328
0.0047139616
0.003511159
0.0025884201
0.0018885347
0.0013636779
0.00097451735
0.00068921612
0.00048240159
0.00033415714
0.0002290785
0.00015542252
0.00010436275
6.935642e-05
4.5619095e-05
2.9698642e-05
1.9136805e-05
1.2205629e-05
7.7059397e-06
4.8159722e-06
2.979586e-06
1.8250069e-06
1.106711e-06
6.6449422e-07
3.9506001e-07
2.3258353e-07
1.3560301e-07
7.8300739e-08
4.4781774e-08
2.5369348e-08
1.4237192e-08
7.9155574e-09
4.3603001e-09
2.379934e-09
1.2872508e-09
6.899969e-10
3.665661e-10
1.9302473e-10
1.007537e-10
5.2134302e-11
2.6743519e-11
1.3600219e-11
6.8559908e-12
3.4252859e-12
1.6952723e-12
8.3060352e-13
4.0307876e-13
1.9625543e-13
1.001673e-13
6.493643e-14
5.3715807e-14
4.7139199e-14
4.1359113e-14
3.6174985e-14
3.1577067e-14
2.7526852e-14
2.3963832e-14
2.0832444e-14
1.8084377e-14
1.5676572e-14
1.3570225e-14
1.1730461e-14
1.0126032e-14
8.7289994e-15
7.5144165e-15
6.4600529e-15
5.5461378e-15
4.7551257e-15
4.071479e-15
3.4814679e-15
2.9729859e-15
2.5353795e-15
2.159292e-15
1.8365211e-15
1.5598899e-15
1.3231291e-15
1.1207718e-15
9.4805798e-16
8.0084997e-16
6.7555648e-16
5.6906652e-16
4.7876233e-16
4.0343376e-16
0.85751087
0.81522873
0.79905524
0.77195188
0.74361852
0.71328771
0.68141582
0.64824719
0.61404541
0.57907776
0.54361495
0.50792693
0.47227875
0.43692197
0.40210098
0.36804358
0.3349654
0.30306302
0.27251408
0.24347554
0.21608194
0.19044356
0.16664442
0.14474033
0.12475762
0.10669253
0.090511985
0.076155662
0.063539303
0.052558967
0.043095779
0.035020753
0.028199369
0.022495698
0.017775963
0.013911489
0.010781051
0.0082726266
0.0062845786
0.0047263125
0.0035184575
0.0025926388
0.0018909199
0.001364997
0.00097523084
0.0006895936
0.00048259694
0.00033425603
0.00022912747
0.00015544624
0.000104374
6.936164e-05
4.5621467e-05
2.9699698e-05
1.9137266e-05
1.2205827e-05
7.7060238e-06
4.8160079e-06
2.9796014e-06
1.8250138e-06
1.1067145e-06
6.6449614e-07
3.9506123e-07
2.3258437e-07
1.3560362e-07
7.8301197e-08
4.4782118e-08
2.5369605e-08
1.4237382e-08
7.9156963e-09
4.3604003e-09
2.3800053e-09
1.2873008e-09
6.9003151e-10
3.665897e-10
1.9304059e-10
1.0076421e-10
5.2141162e-11
2.6747934e-11
1.3603019e-11
6.857741e-12
3.4263641e-12
1.6959267e-12
8.3099427e-13
4.033062e-13
1.9638233e-13
1.0022571e-13
6.4959202e-14
5.3729227e-14
4.7152001e-14
4.1372304e-14
3.6188396e-14
3.159051e-14
2.7540206e-14
2.3976995e-14
2.0845308e-14
1.8096841e-14
1.5688543e-14
1.3581622e-14
1.1741215e-14
1.0136089e-14
8.7383186e-15
7.5229738e-15
6.4678385e-15
5.5531558e-15
4.7613928e-15
4.0770229e-15
3.4863255e-15
2.9772014e-15
2.5390024e-15
2.1623753e-15
1.8391192e-15
1.5620573e-15
1.3249192e-15
1.1222351e-15
9.4924185e-16
8.0179783e-16
6.7630741e-16
5.6965481e-16
4.7921115e-16
4.0343376e-16
0.85751087
0.8181661
0.80326616
0.77700192
0.74941655
0.71979602
0.68858737
0.65601519
0.62232164
0.58775474
0.55256993
0.5170267
0.4813854
0.44589725
0.41081825
0.37638554
0.34282927
0.31036343
0.2791855
0.24947377
0.22138486
0.19505073
0.17057562
0.14803311
0.12746374
0.10887388
0.09223618
0.077491781
0.064554248
0.053314629
0.043647157
0.035414982
0.028475525
0.02268519
0.017903304
0.013995281
0.010835029
0.0083066609
0.0063055801
0.0047389937
0.0035259494
0.0025969691
0.0018933684
0.0013663513
0.00097596368
0.0006899815
0.00048279779
0.00033435776
0.00022917788
0.00015547068
0.00010438559
6.9367022e-05
4.5623913e-05
2.9700787e-05
1.9137742e-05
1.2206031e-05
7.7061104e-06
4.8160445e-06
2.9796171e-06
1.8250209e-06
1.106718e-06
6.6449808e-07
3.9506245e-07
2.3258522e-07
1.3560425e-07
7.8301667e-08
4.4782472e-08
2.536987e-08
1.4237579e-08
7.9158408e-09
4.3605048e-09
2.3800798e-09
1.2873532e-09
6.9006781e-10
3.6661449e-10
1.9305728e-10
1.0077527e-10
5.2148395e-11
2.6752593e-11
1.3605977e-11
6.8595921e-12
3.4275056e-12
1.6966203e-12
8.3140888e-13
4.0354808e-13
1.9651785e-13
1.0028965e-13
6.4984525e-14
5.3743253e-14
4.7164956e-14
4.1385635e-14
3.6201959e-14
3.1604112e-14
2.7553721e-14
2.3990316e-14
2.085833e-14
1.8109461e-14
1.5700665e-14
1.3593165e-14
1.1752108e-14
1.0146278e-14
8.7477626e-15
7.5316476e-15
6.4757317e-15
5.5602723e-15
4.7677491e-15
4.0826468e-15
3.4912543e-15
2.9814795e-15
2.5426798e-15
2.1655054e-15
1.8417573e-15
1.5642585e-15
1.3267373e-15
1.1237215e-15
9.5044459e-16
8.0276088e-16
6.7707042e-16
5.7025264e-16
4.7966937e-16
4.0343376e-16
0.85751087
0.82133684
0.80724282
0.7818912
0.75504241
0.7261315
0.69559078
0.66362781
0.63046365
0.59632669
0.56145599
0.5260989
0.49050919
0.45493579
0.41964175
0.38487117
0.35086663
0.31785824
0.28606264
0.25567964
0.22688871
0.19984494
0.17467471
0.15147138
0.13029176
0.1111541
0.094038074
0.078887161
0.065613123
0.054101996
0.044220849
0.035824554
0.028762007
0.022881495
0.01803506
0.014081886
0.01089077
0.0083417854
0.0063272455
0.0047520731
0.0035336767
0.0026014364
0.0018958954
0.0013677498
0.0009767209
0.00069038262
0.00048300566
0.00033446315
0.00022923016
0.00015549605
0.00010439764
6.9372619e-05
4.5626459e-05
2.9701921e-05
1.9138237e-05
1.2206244e-05
7.7062006e-06
4.8160825e-06
2.9796335e-06
1.8250282e-06
1.1067215e-06
6.6450007e-07
3.9506371e-07
2.325861e-07
1.356049e-07
7.8302157e-08
4.4782843e-08
2.537015e-08
1.4237787e-08
7.9159936e-09
4.3606156e-09
2.380159e-09
1.287409e-09
6.9010649e-10
3.6664094e-10
1.930751e-10
1.0078711e-10
5.2156144e-11
2.6757591e-11
1.3609154e-11
6.8615826e-12
3.4287346e-12
1.6973679e-12
8.3185645e-13
4.0380992e-13
1.9666533e-13
1.0036136e-13
6.5013465e-14
5.3758102e-14
4.7178074e-14
4.1399103e-14
3.6215678e-14
3.1617879e-14
2.7567402e-14
2.4003803e-14
2.0871516e-14
1.8122242e-14
1.5712946e-14
1.3604862e-14
1.176315e-14
1.0156608e-14
8.7573394e-15
7.5404456e-15
6.4837401e-15
5.5674945e-15
4.7742016e-15
4.0883573e-15
3.4962601e-15
2.9858256e-15
2.5464166e-15
2.168687e-15
1.8444393e-15
1.5664968e-15
1.3285864e-15
1.1252336e-15
9.5166823e-16
8.037408e-16
6.7784688e-16
5.7086112e-16
4.8013777e-16
4.0343376e-16
0.85751087
0.82463959
0.81091385
0.78657667
0.76045472
0.73225352
0.70238467
0.67104353
0.63843088
0.60475523
0.57023817
0.53511312
0.49962482
0.46401784
0.42855745
0.39349229
0.35907494
0.32555002
0.29315246
0.2621035
0.23260622
0.20484028
0.17895613
0.15506915
0.13325463
0.11354465
0.095927473
0.080349915
0.066722444
0.05492616
0.044820742
0.036252369
0.029060932
0.023086127
0.018172291
0.014172032
0.010948766
0.0083783225
0.0063497825
0.004765682
0.0035417203
0.0026060895
0.0018985295
0.001369209
0.00097751185
0.00069080208
0.00048322331
0.00033457364
0.00022928504
0.00015552272
0.00010441032
6.937852e-05
4.5629146e-05
2.970312e-05
1.9138762e-05
1.2206469e-05
7.7062961e-06
4.8161229e-06
2.9796507e-06
1.8250359e-06
1.1067253e-06
6.6450217e-07
3.9506504e-07
2.3258703e-07
1.3560559e-07
7.830268e-08
4.4783241e-08
2.537045e-08
1.4238011e-08
7.9161586e-09
4.3607355e-09
2.3802448e-09
1.2874695e-09
6.9014857e-10
3.6666977e-10
1.9309456e-10
1.0080005e-10
5.2164627e-11
2.6763071e-11
1.3612643e-11
6.863771e-12
3.4300875e-12
1.6981921e-12
8.3235072e-13
4.0410005e-13
1.9682973e-13
1.0044412e-13
6.5047548e-14
5.3774119e-14
4.7191415e-14
4.1412757e-14
3.6229608e-14
3.1631872e-14
2.7581311e-14
2.4017517e-14
2.0884927e-14
1.8135244e-14
1.5725443e-14
1.3616768e-14
1.1774392e-14
1.0167128e-14
8.7670964e-15
7.549412e-15
6.4919044e-15
5.5748598e-15
4.780784e-15
4.0941847e-15
3.50137e-15
2.9902633e-15
2.5502334e-15
2.1719375e-15
1.8471802e-15
1.5687849e-15
1.3304772e-15
1.12678e-15
9.5291995e-16
8.0474338e-16
6.7864143e-16
5.7148392e-16
4.8061877e-16
4.0343376e-16
0.85751087
0.8279498
0.81434723
0.79104884
0.76565085
0.7381558
0.70895929
0.67824878
0.64620628
0.61302077
0.57889573
0.54404928
0.50871476
0.47313014
0.43755645
0.40224451
0.36745421
0.33344288
0.30046271
0.2687561
0.23855037
0.21005111
0.1834348
0.15884112
0.13636621
0.11605812
0.097915395
0.081889386
0.067889905
0.055793289
0.045451653
0.036702101
0.029375039
0.023301082
0.018316419
0.01426671
0.01100969
0.0084167207
0.0063734828
0.0047800053
0.0035501951
0.0026109978
0.0019013119
0.0013707527
0.00097834986
0.00069124725
0.0004834547
0.00033469131
0.00022934359
0.00015555122
0.0001044239
6.9384849e-05
4.5632035e-05
2.9704411e-05
1.9139327e-05
1.2206712e-05
7.7063992e-06
4.8161664e-06
2.9796693e-06
1.8250443e-06
1.1067294e-06
6.6450443e-07
3.9506648e-07
2.3258804e-07
1.3560634e-07
7.8303251e-08
4.4783676e-08
2.537078e-08
1.4238258e-08
7.916341e-09
4.3608682e-09
2.38034e-09
1.2875368e-09
6.9019546e-10
3.6670194e-10
1.9311631e-10
1.0081455e-10
5.217414e-11
2.6769226e-11
1.3616567e-11
6.8662365e-12
3.4316141e-12
1.6991235e-12
8.3291026e-13
4.0442967e-13
1.9701773e-13
1.0054223e-13
6.508878e-14
5.3791768e-14
4.7205079e-14
4.1426682e-14
3.6243841e-14
3.1646189e-14
2.7595544e-14
2.4031554e-14
2.0898658e-14
1.8148561e-14
1.5738247e-14
1.3628969e-14
1.1785918e-14
1.0177919e-14
8.7771076e-15
7.5586158e-15
6.5002884e-15
5.5824264e-15
4.7875493e-15
4.1001766e-15
3.5066265e-15
2.9948304e-15
2.5541629e-15
2.1752852e-15
1.850004e-15
1.5711429e-15
1.3324262e-15
1.1283745e-15
9.5421094e-16
8.0577767e-16
6.7946129e-16
5.7212674e-16
4.8111587e-16
4.0343376e-16
0.85751087
0.83116834
0.81759163
0.79531203
0.77064306
0.74385031
0.71532527
0.68525151
0.65379432
0.6211237
0.58742461
0.55289863
0.51776561
0.48225467
0.4466179
0.41110613
0.37598389
0.34151906
0.30797951
0.27562805
0.24471626
0.21547653
0.18811296
0.16279163
0.13963185
0.11869991
0.10000664
0.083509382
0.069118207
0.05670506
0.046114433
0.03717401
0.029704217
0.023526059
0.018467079
0.014365564
0.011073239
0.0084567424
0.0063981708
0.0047949204
0.0035590187
0.0026161086
0.0019042099
0.0013723611
0.00097922355
0.0006917117
0.0004836963
0.00033481429
0.00022940484
0.00015558107
0.00010443813
6.9391491e-05
4.5635068e-05
2.9705768e-05
1.9139922e-05
1.2206968e-05
7.7065078e-06
4.8162123e-06
2.9796889e-06
1.825053e-06
1.1067336e-06
6.645068e-07
3.9506799e-07
2.3258911e-07
1.3560713e-07
7.8303856e-08
4.4784139e-08
2.5371131e-08
1.4238521e-08
7.9165358e-09
4.3610102e-09
2.380442e-09
1.287609e-09
6.902458e-10
3.6673652e-10
1.9313972e-10
1.0083016e-10
5.2184399e-11
2.6775869e-11
1.3620806e-11
6.8689024e-12
3.4332663e-12
1.7001324e-12
8.3351707e-13
4.0478791e-13
1.9722285e-13
1.0065148e-13
6.513521e-14
5.3810621e-14
4.7218986e-14
4.1440808e-14
3.6258301e-14
3.1660746e-14
2.7610019e-14
2.4045831e-14
2.0912627e-14
1.8162113e-14
1.5751279e-14
1.3641392e-14
1.1797656e-14
1.0188911e-14
8.7873092e-15
7.5679975e-15
6.5088372e-15
5.5901443e-15
4.7944521e-15
4.1062924e-15
3.5119935e-15
2.999495e-15
2.5581776e-15